+ 1 0 1 tcp 40 ------- 1 0.0 1.0 0 0
- 1 0 1 tcp 40 ------- 1 0.0 1.0 0 0
r 1.022032 0 1 tcp 40 ------- 1 0.0 1.0 0 0
+ 1.022032 1 0 ack 40 ------- 1 1.0 0.0 0 1
- 1.022032 1 0 ack 40 ------- 1 1.0 0.0 0 1
r 1.044064 1 0 ack 40 ------- 1 1.0 0.0 0 1
+ 1.044064 0 1 tcp 1040 ------- 1 0.0 1.0 1 2
- 1.044064 0 1 tcp 1040 ------- 1 0.0 1.0 1 2
+ 1.044064 0 1 tcp 1040 ------- 1 0.0 1.0 2 3
- 1.044896 0 1 tcp 1040 ------- 1 0.0 1.0 2 3
r 1.066896 0 1 tcp 1040 ------- 1 0.0 1.0 1 2
+ 1.066896 1 0 ack 40 ------- 1 1.0 0.0 1 4
- 1.066896 1 0 ack 40 ------- 1 1.0 0.0 1 4
r 1.067728 0 1 tcp 1040 ------- 1 0.0 1.0 2 3
+ 1.067728 1 0 ack 40 ------- 1 1.0 0.0 2 5
- 1.067728 1 0 ack 40 ------- 1 1.0 0.0 2 5
r 1.088928 1 0 ack 40 ------- 1 1.0 0.0 1 4
+ 1.088928 0 1 tcp 1040 ------- 1 0.0 1.0 3 6
- 1.088928 0 1 tcp 1040 ------- 1 0.0 1.0 3 6
+ 1.088928 0 1 tcp 1040 ------- 1 0.0 1.0 4 7
r 1.08976 1 0 ack 40 ------- 1 1.0 0.0 2 5
+ 1.08976 0 1 tcp 1040 ------- 1 0.0 1.0 5 8
+ 1.08976 0 1 tcp 1040 ------- 1 0.0 1.0 6 9
- 1.08976 0 1 tcp 1040 ------- 1 0.0 1.0 4 7
- 1.090592 0 1 tcp 1040 ------- 1 0.0 1.0 5 8
- 1.091424 0 1 tcp 1040 ------- 1 0.0 1.0 6 9
r 1.11176 0 1 tcp 1040 ------- 1 0.0 1.0 3 6
+ 1.11176 1 0 ack 40 ------- 1 1.0 0.0 3 10
- 1.11176 1 0 ack 40 ------- 1 1.0 0.0 3 10
r 1.112592 0 1 tcp 1040 ------- 1 0.0 1.0 4 7
+ 1.112592 1 0 ack 40 ------- 1 1.0 0.0 4 11
- 1.112592 1 0 ack 40 ------- 1 1.0 0.0 4 11
r 1.113424 0 1 tcp 1040 ------- 1 0.0 1.0 5 8
+ 1.113424 1 0 ack 40 ------- 1 1.0 0.0 5 12
- 1.113424 1 0 ack 40 ------- 1 1.0 0.0 5 12
r 1.114256 0 1 tcp 1040 ------- 1 0.0 1.0 6 9
+ 1.114256 1 0 ack 40 ------- 1 1.0 0.0 6 13
- 1.114256 1 0 ack 40 ------- 1 1.0 0.0 6 13
r 1.133792 1 0 ack 40 ------- 1 1.0 0.0 3 10
+ 1.133792 0 1 tcp 1040 ------- 1 0.0 1.0 7 14
- 1.133792 0 1 tcp 1040 ------- 1 0.0 1.0 7 14
+ 1.133792 0 1 tcp 1040 ------- 1 0.0 1.0 8 15
r 1.134624 1 0 ack 40 ------- 1 1.0 0.0 4 11
+ 1.134624 0 1 tcp 1040 ------- 1 0.0 1.0 9 16
+ 1.134624 0 1 tcp 1040 ------- 1 0.0 1.0 10 17
- 1.134624 0 1 tcp 1040 ------- 1 0.0 1.0 8 15
r 1.135456 1 0 ack 40 ------- 1 1.0 0.0 5 12
+ 1.135456 0 1 tcp 1040 ------- 1 0.0 1.0 11 18
+ 1.135456 0 1 tcp 1040 ------- 1 0.0 1.0 12 19
- 1.135456 0 1 tcp 1040 ------- 1 0.0 1.0 9 16
r 1.136288 1 0 ack 40 ------- 1 1.0 0.0 6 13
+ 1.136288 0 1 tcp 1040 ------- 1 0.0 1.0 13 20
+ 1.136288 0 1 tcp 1040 ------- 1 0.0 1.0 14 21
- 1.136288 0 1 tcp 1040 ------- 1 0.0 1.0 10 17
- 1.13712 0 1 tcp 1040 ------- 1 0.0 1.0 11 18
- 1.137952 0 1 tcp 1040 ------- 1 0.0 1.0 12 19
- 1.138784 0 1 tcp 1040 ------- 1 0.0 1.0 13 20
- 1.139616 0 1 tcp 1040 ------- 1 0.0 1.0 14 21
r 1.156624 0 1 tcp 1040 ------- 1 0.0 1.0 7 14
+ 1.156624 1 0 ack 40 ------- 1 1.0 0.0 7 22
- 1.156624 1 0 ack 40 ------- 1 1.0 0.0 7 22
r 1.157456 0 1 tcp 1040 ------- 1 0.0 1.0 8 15
+ 1.157456 1 0 ack 40 ------- 1 1.0 0.0 8 23
- 1.157456 1 0 ack 40 ------- 1 1.0 0.0 8 23
r 1.158288 0 1 tcp 1040 ------- 1 0.0 1.0 9 16
+ 1.158288 1 0 ack 40 ------- 1 1.0 0.0 9 24
- 1.158288 1 0 ack 40 ------- 1 1.0 0.0 9 24
r 1.15912 0 1 tcp 1040 ------- 1 0.0 1.0 10 17
+ 1.15912 1 0 ack 40 ------- 1 1.0 0.0 10 25
- 1.15912 1 0 ack 40 ------- 1 1.0 0.0 10 25
r 1.159952 0 1 tcp 1040 ------- 1 0.0 1.0 11 18
+ 1.159952 1 0 ack 40 ------- 1 1.0 0.0 11 26
- 1.159952 1 0 ack 40 ------- 1 1.0 0.0 11 26
r 1.160784 0 1 tcp 1040 ------- 1 0.0 1.0 12 19
+ 1.160784 1 0 ack 40 ------- 1 1.0 0.0 12 27
- 1.160784 1 0 ack 40 ------- 1 1.0 0.0 12 27
r 1.161616 0 1 tcp 1040 ------- 1 0.0 1.0 13 20
+ 1.161616 1 0 ack 40 ------- 1 1.0 0.0 13 28
- 1.161616 1 0 ack 40 ------- 1 1.0 0.0 13 28
r 1.162448 0 1 tcp 1040 ------- 1 0.0 1.0 14 21
+ 1.162448 1 0 ack 40 ------- 1 1.0 0.0 14 29
- 1.162448 1 0 ack 40 ------- 1 1.0 0.0 14 29
r 1.178656 1 0 ack 40 ------- 1 1.0 0.0 7 22
+ 1.178656 0 1 tcp 1040 ------- 1 0.0 1.0 15 30
- 1.178656 0 1 tcp 1040 ------- 1 0.0 1.0 15 30
+ 1.178656 0 1 tcp 1040 ------- 1 0.0 1.0 16 31
r 1.179488 1 0 ack 40 ------- 1 1.0 0.0 8 23
+ 1.179488 0 1 tcp 1040 ------- 1 0.0 1.0 17 32
+ 1.179488 0 1 tcp 1040 ------- 1 0.0 1.0 18 33
- 1.179488 0 1 tcp 1040 ------- 1 0.0 1.0 16 31
r 1.18032 1 0 ack 40 ------- 1 1.0 0.0 9 24
+ 1.18032 0 1 tcp 1040 ------- 1 0.0 1.0 19 34
+ 1.18032 0 1 tcp 1040 ------- 1 0.0 1.0 20 35
- 1.18032 0 1 tcp 1040 ------- 1 0.0 1.0 17 32
r 1.181152 1 0 ack 40 ------- 1 1.0 0.0 10 25
+ 1.181152 0 1 tcp 1040 ------- 1 0.0 1.0 21 36
+ 1.181152 0 1 tcp 1040 ------- 1 0.0 1.0 22 37
- 1.181152 0 1 tcp 1040 ------- 1 0.0 1.0 18 33
r 1.181984 1 0 ack 40 ------- 1 1.0 0.0 11 26
+ 1.181984 0 1 tcp 1040 ------- 1 0.0 1.0 23 38
+ 1.181984 0 1 tcp 1040 ------- 1 0.0 1.0 24 39
- 1.181984 0 1 tcp 1040 ------- 1 0.0 1.0 19 34
r 1.182816 1 0 ack 40 ------- 1 1.0 0.0 12 27
+ 1.182816 0 1 tcp 1040 ------- 1 0.0 1.0 25 40
+ 1.182816 0 1 tcp 1040 ------- 1 0.0 1.0 26 41
- 1.182816 0 1 tcp 1040 ------- 1 0.0 1.0 20 35
r 1.183648 1 0 ack 40 ------- 1 1.0 0.0 13 28
+ 1.183648 0 1 tcp 1040 ------- 1 0.0 1.0 27 42
+ 1.183648 0 1 tcp 1040 ------- 1 0.0 1.0 28 43
- 1.183648 0 1 tcp 1040 ------- 1 0.0 1.0 21 36
r 1.18448 1 0 ack 40 ------- 1 1.0 0.0 14 29
+ 1.18448 0 1 tcp 1040 ------- 1 0.0 1.0 29 44
+ 1.18448 0 1 tcp 1040 ------- 1 0.0 1.0 30 45
- 1.18448 0 1 tcp 1040 ------- 1 0.0 1.0 22 37
- 1.185312 0 1 tcp 1040 ------- 1 0.0 1.0 23 38
- 1.186144 0 1 tcp 1040 ------- 1 0.0 1.0 24 39
- 1.186976 0 1 tcp 1040 ------- 1 0.0 1.0 25 40
- 1.187808 0 1 tcp 1040 ------- 1 0.0 1.0 26 41
- 1.18864 0 1 tcp 1040 ------- 1 0.0 1.0 27 42
- 1.189472 0 1 tcp 1040 ------- 1 0.0 1.0 28 43
- 1.190304 0 1 tcp 1040 ------- 1 0.0 1.0 29 44
- 1.191136 0 1 tcp 1040 ------- 1 0.0 1.0 30 45
r 1.201488 0 1 tcp 1040 ------- 1 0.0 1.0 15 30
+ 1.201488 1 0 ack 40 ------- 1 1.0 0.0 15 46
- 1.201488 1 0 ack 40 ------- 1 1.0 0.0 15 46
r 1.20232 0 1 tcp 1040 ------- 1 0.0 1.0 16 31
+ 1.20232 1 0 ack 40 ------- 1 1.0 0.0 16 47
- 1.20232 1 0 ack 40 ------- 1 1.0 0.0 16 47
r 1.203152 0 1 tcp 1040 ------- 1 0.0 1.0 17 32
+ 1.203152 1 0 ack 40 ------- 1 1.0 0.0 17 48
- 1.203152 1 0 ack 40 ------- 1 1.0 0.0 17 48
r 1.203984 0 1 tcp 1040 ------- 1 0.0 1.0 18 33
+ 1.203984 1 0 ack 40 ------- 1 1.0 0.0 18 49
- 1.203984 1 0 ack 40 ------- 1 1.0 0.0 18 49
r 1.204816 0 1 tcp 1040 ------- 1 0.0 1.0 19 34
+ 1.204816 1 0 ack 40 ------- 1 1.0 0.0 19 50
- 1.204816 1 0 ack 40 ------- 1 1.0 0.0 19 50
r 1.205648 0 1 tcp 1040 ------- 1 0.0 1.0 20 35
+ 1.205648 1 0 ack 40 ------- 1 1.0 0.0 20 51
- 1.205648 1 0 ack 40 ------- 1 1.0 0.0 20 51
r 1.20648 0 1 tcp 1040 ------- 1 0.0 1.0 21 36
+ 1.20648 1 0 ack 40 ------- 1 1.0 0.0 21 52
- 1.20648 1 0 ack 40 ------- 1 1.0 0.0 21 52
r 1.207312 0 1 tcp 1040 ------- 1 0.0 1.0 22 37
+ 1.207312 1 0 ack 40 ------- 1 1.0 0.0 22 53
- 1.207312 1 0 ack 40 ------- 1 1.0 0.0 22 53
r 1.208144 0 1 tcp 1040 ------- 1 0.0 1.0 23 38
+ 1.208144 1 0 ack 40 ------- 1 1.0 0.0 23 54
- 1.208144 1 0 ack 40 ------- 1 1.0 0.0 23 54
r 1.208976 0 1 tcp 1040 ------- 1 0.0 1.0 24 39
+ 1.208976 1 0 ack 40 ------- 1 1.0 0.0 24 55
- 1.208976 1 0 ack 40 ------- 1 1.0 0.0 24 55
r 1.209808 0 1 tcp 1040 ------- 1 0.0 1.0 25 40
+ 1.209808 1 0 ack 40 ------- 1 1.0 0.0 25 56
- 1.209808 1 0 ack 40 ------- 1 1.0 0.0 25 56
r 1.21064 0 1 tcp 1040 ------- 1 0.0 1.0 26 41
+ 1.21064 1 0 ack 40 ------- 1 1.0 0.0 26 57
- 1.21064 1 0 ack 40 ------- 1 1.0 0.0 26 57
r 1.211472 0 1 tcp 1040 ------- 1 0.0 1.0 27 42
+ 1.211472 1 0 ack 40 ------- 1 1.0 0.0 27 58
- 1.211472 1 0 ack 40 ------- 1 1.0 0.0 27 58
r 1.212304 0 1 tcp 1040 ------- 1 0.0 1.0 28 43
+ 1.212304 1 0 ack 40 ------- 1 1.0 0.0 28 59
- 1.212304 1 0 ack 40 ------- 1 1.0 0.0 28 59
r 1.213136 0 1 tcp 1040 ------- 1 0.0 1.0 29 44
+ 1.213136 1 0 ack 40 ------- 1 1.0 0.0 29 60
- 1.213136 1 0 ack 40 ------- 1 1.0 0.0 29 60
r 1.213968 0 1 tcp 1040 ------- 1 0.0 1.0 30 45
+ 1.213968 1 0 ack 40 ------- 1 1.0 0.0 30 61
- 1.213968 1 0 ack 40 ------- 1 1.0 0.0 30 61
r 1.22352 1 0 ack 40 ------- 1 1.0 0.0 15 46
+ 1.22352 0 1 tcp 1040 ------- 1 0.0 1.0 31 62
- 1.22352 0 1 tcp 1040 ------- 1 0.0 1.0 31 62
+ 1.22352 0 1 tcp 1040 ------- 1 0.0 1.0 32 63
r 1.224352 1 0 ack 40 ------- 1 1.0 0.0 16 47
+ 1.224352 0 1 tcp 1040 ------- 1 0.0 1.0 33 64
+ 1.224352 0 1 tcp 1040 ------- 1 0.0 1.0 34 65
- 1.224352 0 1 tcp 1040 ------- 1 0.0 1.0 32 63
r 1.225184 1 0 ack 40 ------- 1 1.0 0.0 17 48
+ 1.225184 0 1 tcp 1040 ------- 1 0.0 1.0 35 66
+ 1.225184 0 1 tcp 1040 ------- 1 0.0 1.0 36 67
- 1.225184 0 1 tcp 1040 ------- 1 0.0 1.0 33 64
r 1.226016 1 0 ack 40 ------- 1 1.0 0.0 18 49
+ 1.226016 0 1 tcp 1040 ------- 1 0.0 1.0 37 68
+ 1.226016 0 1 tcp 1040 ------- 1 0.0 1.0 38 69
- 1.226016 0 1 tcp 1040 ------- 1 0.0 1.0 34 65
r 1.226848 1 0 ack 40 ------- 1 1.0 0.0 19 50
+ 1.226848 0 1 tcp 1040 ------- 1 0.0 1.0 39 70
- 1.226848 0 1 tcp 1040 ------- 1 0.0 1.0 35 66
r 1.22768 1 0 ack 40 ------- 1 1.0 0.0 20 51
+ 1.22768 0 1 tcp 1040 ------- 1 0.0 1.0 40 71
- 1.22768 0 1 tcp 1040 ------- 1 0.0 1.0 36 67
r 1.228512 1 0 ack 40 ------- 1 1.0 0.0 21 52
+ 1.228512 0 1 tcp 1040 ------- 1 0.0 1.0 41 72
- 1.228512 0 1 tcp 1040 ------- 1 0.0 1.0 37 68
r 1.229344 1 0 ack 40 ------- 1 1.0 0.0 22 53
+ 1.229344 0 1 tcp 1040 ------- 1 0.0 1.0 42 73
- 1.229344 0 1 tcp 1040 ------- 1 0.0 1.0 38 69
r 1.230176 1 0 ack 40 ------- 1 1.0 0.0 23 54
+ 1.230176 0 1 tcp 1040 ------- 1 0.0 1.0 43 74
- 1.230176 0 1 tcp 1040 ------- 1 0.0 1.0 39 70
r 1.231008 1 0 ack 40 ------- 1 1.0 0.0 24 55
+ 1.231008 0 1 tcp 1040 ------- 1 0.0 1.0 44 75
- 1.231008 0 1 tcp 1040 ------- 1 0.0 1.0 40 71
r 1.23184 1 0 ack 40 ------- 1 1.0 0.0 25 56
+ 1.23184 0 1 tcp 1040 ------- 1 0.0 1.0 45 76
- 1.23184 0 1 tcp 1040 ------- 1 0.0 1.0 41 72
r 1.232672 1 0 ack 40 ------- 1 1.0 0.0 26 57
+ 1.232672 0 1 tcp 1040 ------- 1 0.0 1.0 46 77
- 1.232672 0 1 tcp 1040 ------- 1 0.0 1.0 42 73
r 1.233504 1 0 ack 40 ------- 1 1.0 0.0 27 58
+ 1.233504 0 1 tcp 1040 ------- 1 0.0 1.0 47 78
- 1.233504 0 1 tcp 1040 ------- 1 0.0 1.0 43 74
r 1.234336 1 0 ack 40 ------- 1 1.0 0.0 28 59
+ 1.234336 0 1 tcp 1040 ------- 1 0.0 1.0 48 79
- 1.234336 0 1 tcp 1040 ------- 1 0.0 1.0 44 75
r 1.235168 1 0 ack 40 ------- 1 1.0 0.0 29 60
+ 1.235168 0 1 tcp 1040 ------- 1 0.0 1.0 49 80
- 1.235168 0 1 tcp 1040 ------- 1 0.0 1.0 45 76
r 1.236 1 0 ack 40 ------- 1 1.0 0.0 30 61
+ 1.236 0 1 tcp 1040 ------- 1 0.0 1.0 50 81
- 1.236 0 1 tcp 1040 ------- 1 0.0 1.0 46 77
- 1.236832 0 1 tcp 1040 ------- 1 0.0 1.0 47 78
- 1.237664 0 1 tcp 1040 ------- 1 0.0 1.0 48 79
- 1.238496 0 1 tcp 1040 ------- 1 0.0 1.0 49 80
- 1.239328 0 1 tcp 1040 ------- 1 0.0 1.0 50 81
r 1.246352 0 1 tcp 1040 ------- 1 0.0 1.0 31 62
+ 1.246352 1 0 ack 40 ------- 1 1.0 0.0 31 82
- 1.246352 1 0 ack 40 ------- 1 1.0 0.0 31 82
r 1.247184 0 1 tcp 1040 ------- 1 0.0 1.0 32 63
+ 1.247184 1 0 ack 40 ------- 1 1.0 0.0 32 83
- 1.247184 1 0 ack 40 ------- 1 1.0 0.0 32 83
r 1.248016 0 1 tcp 1040 ------- 1 0.0 1.0 33 64
+ 1.248016 1 0 ack 40 ------- 1 1.0 0.0 33 84
- 1.248016 1 0 ack 40 ------- 1 1.0 0.0 33 84
r 1.248848 0 1 tcp 1040 ------- 1 0.0 1.0 34 65
+ 1.248848 1 0 ack 40 ------- 1 1.0 0.0 34 85
- 1.248848 1 0 ack 40 ------- 1 1.0 0.0 34 85
r 1.24968 0 1 tcp 1040 ------- 1 0.0 1.0 35 66
+ 1.24968 1 0 ack 40 ------- 1 1.0 0.0 35 86
- 1.24968 1 0 ack 40 ------- 1 1.0 0.0 35 86
r 1.250512 0 1 tcp 1040 ------- 1 0.0 1.0 36 67
+ 1.250512 1 0 ack 40 ------- 1 1.0 0.0 36 87
- 1.250512 1 0 ack 40 ------- 1 1.0 0.0 36 87
r 1.251344 0 1 tcp 1040 ------- 1 0.0 1.0 37 68
+ 1.251344 1 0 ack 40 ------- 1 1.0 0.0 37 88
- 1.251344 1 0 ack 40 ------- 1 1.0 0.0 37 88
r 1.252176 0 1 tcp 1040 ------- 1 0.0 1.0 38 69
+ 1.252176 1 0 ack 40 ------- 1 1.0 0.0 38 89
- 1.252176 1 0 ack 40 ------- 1 1.0 0.0 38 89
r 1.253008 0 1 tcp 1040 ------- 1 0.0 1.0 39 70
+ 1.253008 1 0 ack 40 ------- 1 1.0 0.0 39 90
- 1.253008 1 0 ack 40 ------- 1 1.0 0.0 39 90
r 1.25384 0 1 tcp 1040 ------- 1 0.0 1.0 40 71
+ 1.25384 1 0 ack 40 ------- 1 1.0 0.0 40 91
- 1.25384 1 0 ack 40 ------- 1 1.0 0.0 40 91
r 1.254672 0 1 tcp 1040 ------- 1 0.0 1.0 41 72
+ 1.254672 1 0 ack 40 ------- 1 1.0 0.0 41 92
- 1.254672 1 0 ack 40 ------- 1 1.0 0.0 41 92
r 1.255504 0 1 tcp 1040 ------- 1 0.0 1.0 42 73
+ 1.255504 1 0 ack 40 ------- 1 1.0 0.0 42 93
- 1.255504 1 0 ack 40 ------- 1 1.0 0.0 42 93
r 1.256336 0 1 tcp 1040 ------- 1 0.0 1.0 43 74
+ 1.256336 1 0 ack 40 ------- 1 1.0 0.0 43 94
- 1.256336 1 0 ack 40 ------- 1 1.0 0.0 43 94
r 1.257168 0 1 tcp 1040 ------- 1 0.0 1.0 44 75
+ 1.257168 1 0 ack 40 ------- 1 1.0 0.0 44 95
- 1.257168 1 0 ack 40 ------- 1 1.0 0.0 44 95
r 1.258 0 1 tcp 1040 ------- 1 0.0 1.0 45 76
+ 1.258 1 0 ack 40 ------- 1 1.0 0.0 45 96
- 1.258 1 0 ack 40 ------- 1 1.0 0.0 45 96
r 1.258832 0 1 tcp 1040 ------- 1 0.0 1.0 46 77
+ 1.258832 1 0 ack 40 ------- 1 1.0 0.0 46 97
- 1.258832 1 0 ack 40 ------- 1 1.0 0.0 46 97
r 1.259664 0 1 tcp 1040 ------- 1 0.0 1.0 47 78
+ 1.259664 1 0 ack 40 ------- 1 1.0 0.0 47 98
- 1.259664 1 0 ack 40 ------- 1 1.0 0.0 47 98
r 1.260496 0 1 tcp 1040 ------- 1 0.0 1.0 48 79
+ 1.260496 1 0 ack 40 ------- 1 1.0 0.0 48 99
- 1.260496 1 0 ack 40 ------- 1 1.0 0.0 48 99
r 1.261328 0 1 tcp 1040 ------- 1 0.0 1.0 49 80
+ 1.261328 1 0 ack 40 ------- 1 1.0 0.0 49 100
- 1.261328 1 0 ack 40 ------- 1 1.0 0.0 49 100
r 1.26216 0 1 tcp 1040 ------- 1 0.0 1.0 50 81
+ 1.26216 1 0 ack 40 ------- 1 1.0 0.0 50 101
- 1.26216 1 0 ack 40 ------- 1 1.0 0.0 50 101
r 1.268384 1 0 ack 40 ------- 1 1.0 0.0 31 82
+ 1.268384 0 1 tcp 1040 ------- 1 0.0 1.0 51 102
- 1.268384 0 1 tcp 1040 ------- 1 0.0 1.0 51 102
r 1.269216 1 0 ack 40 ------- 1 1.0 0.0 32 83
+ 1.269216 0 1 tcp 1040 ------- 1 0.0 1.0 52 103
- 1.269216 0 1 tcp 1040 ------- 1 0.0 1.0 52 103
r 1.270048 1 0 ack 40 ------- 1 1.0 0.0 33 84
+ 1.270048 0 1 tcp 1040 ------- 1 0.0 1.0 53 104
- 1.270048 0 1 tcp 1040 ------- 1 0.0 1.0 53 104
r 1.27088 1 0 ack 40 ------- 1 1.0 0.0 34 85
+ 1.27088 0 1 tcp 1040 ------- 1 0.0 1.0 54 105
- 1.27088 0 1 tcp 1040 ------- 1 0.0 1.0 54 105
r 1.271712 1 0 ack 40 ------- 1 1.0 0.0 35 86
+ 1.271712 0 1 tcp 1040 ------- 1 0.0 1.0 55 106
- 1.271712 0 1 tcp 1040 ------- 1 0.0 1.0 55 106
r 1.272544 1 0 ack 40 ------- 1 1.0 0.0 36 87
+ 1.272544 0 1 tcp 1040 ------- 1 0.0 1.0 56 107
- 1.272544 0 1 tcp 1040 ------- 1 0.0 1.0 56 107
r 1.273376 1 0 ack 40 ------- 1 1.0 0.0 37 88
+ 1.273376 0 1 tcp 1040 ------- 1 0.0 1.0 57 108
- 1.273376 0 1 tcp 1040 ------- 1 0.0 1.0 57 108
r 1.274208 1 0 ack 40 ------- 1 1.0 0.0 38 89
+ 1.274208 0 1 tcp 1040 ------- 1 0.0 1.0 58 109
- 1.274208 0 1 tcp 1040 ------- 1 0.0 1.0 58 109
r 1.27504 1 0 ack 40 ------- 1 1.0 0.0 39 90
+ 1.27504 0 1 tcp 1040 ------- 1 0.0 1.0 59 110
- 1.27504 0 1 tcp 1040 ------- 1 0.0 1.0 59 110
r 1.275872 1 0 ack 40 ------- 1 1.0 0.0 40 91
+ 1.275872 0 1 tcp 1040 ------- 1 0.0 1.0 60 111
- 1.275872 0 1 tcp 1040 ------- 1 0.0 1.0 60 111
r 1.276704 1 0 ack 40 ------- 1 1.0 0.0 41 92
+ 1.276704 0 1 tcp 1040 ------- 1 0.0 1.0 61 112
- 1.276704 0 1 tcp 1040 ------- 1 0.0 1.0 61 112
r 1.277536 1 0 ack 40 ------- 1 1.0 0.0 42 93
+ 1.277536 0 1 tcp 1040 ------- 1 0.0 1.0 62 113
- 1.277536 0 1 tcp 1040 ------- 1 0.0 1.0 62 113
r 1.278368 1 0 ack 40 ------- 1 1.0 0.0 43 94
+ 1.278368 0 1 tcp 1040 ------- 1 0.0 1.0 63 114
- 1.278368 0 1 tcp 1040 ------- 1 0.0 1.0 63 114
r 1.2792 1 0 ack 40 ------- 1 1.0 0.0 44 95
+ 1.2792 0 1 tcp 1040 ------- 1 0.0 1.0 64 115
- 1.2792 0 1 tcp 1040 ------- 1 0.0 1.0 64 115
r 1.280032 1 0 ack 40 ------- 1 1.0 0.0 45 96
+ 1.280032 0 1 tcp 1040 ------- 1 0.0 1.0 65 116
- 1.280032 0 1 tcp 1040 ------- 1 0.0 1.0 65 116
r 1.280864 1 0 ack 40 ------- 1 1.0 0.0 46 97
+ 1.280864 0 1 tcp 1040 ------- 1 0.0 1.0 66 117
- 1.280864 0 1 tcp 1040 ------- 1 0.0 1.0 66 117
r 1.281696 1 0 ack 40 ------- 1 1.0 0.0 47 98
+ 1.281696 0 1 tcp 1040 ------- 1 0.0 1.0 67 118
- 1.281696 0 1 tcp 1040 ------- 1 0.0 1.0 67 118
r 1.282528 1 0 ack 40 ------- 1 1.0 0.0 48 99
+ 1.282528 0 1 tcp 1040 ------- 1 0.0 1.0 68 119
- 1.282528 0 1 tcp 1040 ------- 1 0.0 1.0 68 119
r 1.28336 1 0 ack 40 ------- 1 1.0 0.0 49 100
+ 1.28336 0 1 tcp 1040 ------- 1 0.0 1.0 69 120
- 1.28336 0 1 tcp 1040 ------- 1 0.0 1.0 69 120
r 1.284192 1 0 ack 40 ------- 1 1.0 0.0 50 101
+ 1.284192 0 1 tcp 1040 ------- 1 0.0 1.0 70 121
- 1.284192 0 1 tcp 1040 ------- 1 0.0 1.0 70 121
r 1.291216 0 1 tcp 1040 ------- 1 0.0 1.0 51 102
+ 1.291216 1 0 ack 40 ------- 1 1.0 0.0 51 122
- 1.291216 1 0 ack 40 ------- 1 1.0 0.0 51 122
r 1.292048 0 1 tcp 1040 ------- 1 0.0 1.0 52 103
+ 1.292048 1 0 ack 40 ------- 1 1.0 0.0 52 123
- 1.292048 1 0 ack 40 ------- 1 1.0 0.0 52 123
r 1.29288 0 1 tcp 1040 ------- 1 0.0 1.0 53 104
+ 1.29288 1 0 ack 40 ------- 1 1.0 0.0 53 124
- 1.29288 1 0 ack 40 ------- 1 1.0 0.0 53 124
r 1.293712 0 1 tcp 1040 ------- 1 0.0 1.0 54 105
+ 1.293712 1 0 ack 40 ------- 1 1.0 0.0 54 125
- 1.293712 1 0 ack 40 ------- 1 1.0 0.0 54 125
r 1.294544 0 1 tcp 1040 ------- 1 0.0 1.0 55 106
+ 1.294544 1 0 ack 40 ------- 1 1.0 0.0 55 126
- 1.294544 1 0 ack 40 ------- 1 1.0 0.0 55 126
r 1.295376 0 1 tcp 1040 ------- 1 0.0 1.0 56 107
+ 1.295376 1 0 ack 40 ------- 1 1.0 0.0 56 127
- 1.295376 1 0 ack 40 ------- 1 1.0 0.0 56 127
r 1.296208 0 1 tcp 1040 ------- 1 0.0 1.0 57 108
+ 1.296208 1 0 ack 40 ------- 1 1.0 0.0 57 128
- 1.296208 1 0 ack 40 ------- 1 1.0 0.0 57 128
r 1.29704 0 1 tcp 1040 ------- 1 0.0 1.0 58 109
+ 1.29704 1 0 ack 40 ------- 1 1.0 0.0 58 129
- 1.29704 1 0 ack 40 ------- 1 1.0 0.0 58 129
r 1.297872 0 1 tcp 1040 ------- 1 0.0 1.0 59 110
+ 1.297872 1 0 ack 40 ------- 1 1.0 0.0 59 130
- 1.297872 1 0 ack 40 ------- 1 1.0 0.0 59 130
r 1.298704 0 1 tcp 1040 ------- 1 0.0 1.0 60 111
+ 1.298704 1 0 ack 40 ------- 1 1.0 0.0 60 131
- 1.298704 1 0 ack 40 ------- 1 1.0 0.0 60 131
r 1.299536 0 1 tcp 1040 ------- 1 0.0 1.0 61 112
+ 1.299536 1 0 ack 40 ------- 1 1.0 0.0 61 132
- 1.299536 1 0 ack 40 ------- 1 1.0 0.0 61 132
r 1.300368 0 1 tcp 1040 ------- 1 0.0 1.0 62 113
+ 1.300368 1 0 ack 40 ------- 1 1.0 0.0 62 133
- 1.300368 1 0 ack 40 ------- 1 1.0 0.0 62 133
r 1.3012 0 1 tcp 1040 ------- 1 0.0 1.0 63 114
+ 1.3012 1 0 ack 40 ------- 1 1.0 0.0 63 134
- 1.3012 1 0 ack 40 ------- 1 1.0 0.0 63 134
r 1.302032 0 1 tcp 1040 ------- 1 0.0 1.0 64 115
+ 1.302032 1 0 ack 40 ------- 1 1.0 0.0 64 135
- 1.302032 1 0 ack 40 ------- 1 1.0 0.0 64 135
r 1.302864 0 1 tcp 1040 ------- 1 0.0 1.0 65 116
+ 1.302864 1 0 ack 40 ------- 1 1.0 0.0 65 136
- 1.302864 1 0 ack 40 ------- 1 1.0 0.0 65 136
r 1.303696 0 1 tcp 1040 ------- 1 0.0 1.0 66 117
+ 1.303696 1 0 ack 40 ------- 1 1.0 0.0 66 137
- 1.303696 1 0 ack 40 ------- 1 1.0 0.0 66 137
r 1.304528 0 1 tcp 1040 ------- 1 0.0 1.0 67 118
+ 1.304528 1 0 ack 40 ------- 1 1.0 0.0 67 138
- 1.304528 1 0 ack 40 ------- 1 1.0 0.0 67 138
r 1.30536 0 1 tcp 1040 ------- 1 0.0 1.0 68 119
+ 1.30536 1 0 ack 40 ------- 1 1.0 0.0 68 139
- 1.30536 1 0 ack 40 ------- 1 1.0 0.0 68 139
r 1.306192 0 1 tcp 1040 ------- 1 0.0 1.0 69 120
+ 1.306192 1 0 ack 40 ------- 1 1.0 0.0 69 140
- 1.306192 1 0 ack 40 ------- 1 1.0 0.0 69 140
r 1.307024 0 1 tcp 1040 ------- 1 0.0 1.0 70 121
+ 1.307024 1 0 ack 40 ------- 1 1.0 0.0 70 141
- 1.307024 1 0 ack 40 ------- 1 1.0 0.0 70 141
r 1.313248 1 0 ack 40 ------- 1 1.0 0.0 51 122
+ 1.313248 0 1 tcp 1040 ------- 1 0.0 1.0 71 142
- 1.313248 0 1 tcp 1040 ------- 1 0.0 1.0 71 142
r 1.31408 1 0 ack 40 ------- 1 1.0 0.0 52 123
+ 1.31408 0 1 tcp 1040 ------- 1 0.0 1.0 72 143
- 1.31408 0 1 tcp 1040 ------- 1 0.0 1.0 72 143
r 1.314912 1 0 ack 40 ------- 1 1.0 0.0 53 124
+ 1.314912 0 1 tcp 1040 ------- 1 0.0 1.0 73 144
- 1.314912 0 1 tcp 1040 ------- 1 0.0 1.0 73 144
r 1.315744 1 0 ack 40 ------- 1 1.0 0.0 54 125
+ 1.315744 0 1 tcp 1040 ------- 1 0.0 1.0 74 145
- 1.315744 0 1 tcp 1040 ------- 1 0.0 1.0 74 145
r 1.316576 1 0 ack 40 ------- 1 1.0 0.0 55 126
+ 1.316576 0 1 tcp 1040 ------- 1 0.0 1.0 75 146
- 1.316576 0 1 tcp 1040 ------- 1 0.0 1.0 75 146
r 1.317408 1 0 ack 40 ------- 1 1.0 0.0 56 127
+ 1.317408 0 1 tcp 1040 ------- 1 0.0 1.0 76 147
- 1.317408 0 1 tcp 1040 ------- 1 0.0 1.0 76 147
r 1.31824 1 0 ack 40 ------- 1 1.0 0.0 57 128
+ 1.31824 0 1 tcp 1040 ------- 1 0.0 1.0 77 148
- 1.31824 0 1 tcp 1040 ------- 1 0.0 1.0 77 148
r 1.319072 1 0 ack 40 ------- 1 1.0 0.0 58 129
+ 1.319072 0 1 tcp 1040 ------- 1 0.0 1.0 78 149
- 1.319072 0 1 tcp 1040 ------- 1 0.0 1.0 78 149
r 1.319904 1 0 ack 40 ------- 1 1.0 0.0 59 130
+ 1.319904 0 1 tcp 1040 ------- 1 0.0 1.0 79 150
- 1.319904 0 1 tcp 1040 ------- 1 0.0 1.0 79 150
r 1.320736 1 0 ack 40 ------- 1 1.0 0.0 60 131
+ 1.320736 0 1 tcp 1040 ------- 1 0.0 1.0 80 151
- 1.320736 0 1 tcp 1040 ------- 1 0.0 1.0 80 151
r 1.321568 1 0 ack 40 ------- 1 1.0 0.0 61 132
+ 1.321568 0 1 tcp 1040 ------- 1 0.0 1.0 81 152
- 1.321568 0 1 tcp 1040 ------- 1 0.0 1.0 81 152
r 1.3224 1 0 ack 40 ------- 1 1.0 0.0 62 133
+ 1.3224 0 1 tcp 1040 ------- 1 0.0 1.0 82 153
- 1.3224 0 1 tcp 1040 ------- 1 0.0 1.0 82 153
r 1.323232 1 0 ack 40 ------- 1 1.0 0.0 63 134
+ 1.323232 0 1 tcp 1040 ------- 1 0.0 1.0 83 154
- 1.323232 0 1 tcp 1040 ------- 1 0.0 1.0 83 154
r 1.324064 1 0 ack 40 ------- 1 1.0 0.0 64 135
+ 1.324064 0 1 tcp 1040 ------- 1 0.0 1.0 84 155
- 1.324064 0 1 tcp 1040 ------- 1 0.0 1.0 84 155
r 1.324896 1 0 ack 40 ------- 1 1.0 0.0 65 136
+ 1.324896 0 1 tcp 1040 ------- 1 0.0 1.0 85 156
- 1.324896 0 1 tcp 1040 ------- 1 0.0 1.0 85 156
r 1.325728 1 0 ack 40 ------- 1 1.0 0.0 66 137
+ 1.325728 0 1 tcp 1040 ------- 1 0.0 1.0 86 157
- 1.325728 0 1 tcp 1040 ------- 1 0.0 1.0 86 157
r 1.32656 1 0 ack 40 ------- 1 1.0 0.0 67 138
+ 1.32656 0 1 tcp 1040 ------- 1 0.0 1.0 87 158
- 1.32656 0 1 tcp 1040 ------- 1 0.0 1.0 87 158
r 1.327392 1 0 ack 40 ------- 1 1.0 0.0 68 139
+ 1.327392 0 1 tcp 1040 ------- 1 0.0 1.0 88 159
- 1.327392 0 1 tcp 1040 ------- 1 0.0 1.0 88 159
r 1.328224 1 0 ack 40 ------- 1 1.0 0.0 69 140
+ 1.328224 0 1 tcp 1040 ------- 1 0.0 1.0 89 160
- 1.328224 0 1 tcp 1040 ------- 1 0.0 1.0 89 160
r 1.329056 1 0 ack 40 ------- 1 1.0 0.0 70 141
+ 1.329056 0 1 tcp 1040 ------- 1 0.0 1.0 90 161
- 1.329056 0 1 tcp 1040 ------- 1 0.0 1.0 90 161
r 1.33608 0 1 tcp 1040 ------- 1 0.0 1.0 71 142
+ 1.33608 1 0 ack 40 ------- 1 1.0 0.0 71 162
- 1.33608 1 0 ack 40 ------- 1 1.0 0.0 71 162
r 1.336912 0 1 tcp 1040 ------- 1 0.0 1.0 72 143
+ 1.336912 1 0 ack 40 ------- 1 1.0 0.0 72 163
- 1.336912 1 0 ack 40 ------- 1 1.0 0.0 72 163
r 1.337744 0 1 tcp 1040 ------- 1 0.0 1.0 73 144
+ 1.337744 1 0 ack 40 ------- 1 1.0 0.0 73 164
- 1.337744 1 0 ack 40 ------- 1 1.0 0.0 73 164
r 1.338576 0 1 tcp 1040 ------- 1 0.0 1.0 74 145
+ 1.338576 1 0 ack 40 ------- 1 1.0 0.0 74 165
- 1.338576 1 0 ack 40 ------- 1 1.0 0.0 74 165
r 1.339408 0 1 tcp 1040 ------- 1 0.0 1.0 75 146
+ 1.339408 1 0 ack 40 ------- 1 1.0 0.0 75 166
- 1.339408 1 0 ack 40 ------- 1 1.0 0.0 75 166
r 1.34024 0 1 tcp 1040 ------- 1 0.0 1.0 76 147
+ 1.34024 1 0 ack 40 ------- 1 1.0 0.0 76 167
- 1.34024 1 0 ack 40 ------- 1 1.0 0.0 76 167
r 1.341072 0 1 tcp 1040 ------- 1 0.0 1.0 77 148
+ 1.341072 1 0 ack 40 ------- 1 1.0 0.0 77 168
- 1.341072 1 0 ack 40 ------- 1 1.0 0.0 77 168
r 1.341904 0 1 tcp 1040 ------- 1 0.0 1.0 78 149
+ 1.341904 1 0 ack 40 ------- 1 1.0 0.0 78 169
- 1.341904 1 0 ack 40 ------- 1 1.0 0.0 78 169
r 1.342736 0 1 tcp 1040 ------- 1 0.0 1.0 79 150
+ 1.342736 1 0 ack 40 ------- 1 1.0 0.0 79 170
- 1.342736 1 0 ack 40 ------- 1 1.0 0.0 79 170
r 1.343568 0 1 tcp 1040 ------- 1 0.0 1.0 80 151
+ 1.343568 1 0 ack 40 ------- 1 1.0 0.0 80 171
- 1.343568 1 0 ack 40 ------- 1 1.0 0.0 80 171
r 1.3444 0 1 tcp 1040 ------- 1 0.0 1.0 81 152
+ 1.3444 1 0 ack 40 ------- 1 1.0 0.0 81 172
- 1.3444 1 0 ack 40 ------- 1 1.0 0.0 81 172
r 1.345232 0 1 tcp 1040 ------- 1 0.0 1.0 82 153
+ 1.345232 1 0 ack 40 ------- 1 1.0 0.0 82 173
- 1.345232 1 0 ack 40 ------- 1 1.0 0.0 82 173
r 1.346064 0 1 tcp 1040 ------- 1 0.0 1.0 83 154
+ 1.346064 1 0 ack 40 ------- 1 1.0 0.0 83 174
- 1.346064 1 0 ack 40 ------- 1 1.0 0.0 83 174
r 1.346896 0 1 tcp 1040 ------- 1 0.0 1.0 84 155
+ 1.346896 1 0 ack 40 ------- 1 1.0 0.0 84 175
- 1.346896 1 0 ack 40 ------- 1 1.0 0.0 84 175
r 1.347728 0 1 tcp 1040 ------- 1 0.0 1.0 85 156
+ 1.347728 1 0 ack 40 ------- 1 1.0 0.0 85 176
- 1.347728 1 0 ack 40 ------- 1 1.0 0.0 85 176
r 1.34856 0 1 tcp 1040 ------- 1 0.0 1.0 86 157
+ 1.34856 1 0 ack 40 ------- 1 1.0 0.0 86 177
- 1.34856 1 0 ack 40 ------- 1 1.0 0.0 86 177
r 1.349392 0 1 tcp 1040 ------- 1 0.0 1.0 87 158
+ 1.349392 1 0 ack 40 ------- 1 1.0 0.0 87 178
- 1.349392 1 0 ack 40 ------- 1 1.0 0.0 87 178
r 1.350224 0 1 tcp 1040 ------- 1 0.0 1.0 88 159
+ 1.350224 1 0 ack 40 ------- 1 1.0 0.0 88 179
- 1.350224 1 0 ack 40 ------- 1 1.0 0.0 88 179
r 1.351056 0 1 tcp 1040 ------- 1 0.0 1.0 89 160
+ 1.351056 1 0 ack 40 ------- 1 1.0 0.0 89 180
- 1.351056 1 0 ack 40 ------- 1 1.0 0.0 89 180
r 1.351888 0 1 tcp 1040 ------- 1 0.0 1.0 90 161
+ 1.351888 1 0 ack 40 ------- 1 1.0 0.0 90 181
- 1.351888 1 0 ack 40 ------- 1 1.0 0.0 90 181
r 1.358112 1 0 ack 40 ------- 1 1.0 0.0 71 162
+ 1.358112 0 1 tcp 1040 ------- 1 0.0 1.0 91 182
- 1.358112 0 1 tcp 1040 ------- 1 0.0 1.0 91 182
r 1.358944 1 0 ack 40 ------- 1 1.0 0.0 72 163
+ 1.358944 0 1 tcp 1040 ------- 1 0.0 1.0 92 183
- 1.358944 0 1 tcp 1040 ------- 1 0.0 1.0 92 183
r 1.359776 1 0 ack 40 ------- 1 1.0 0.0 73 164
+ 1.359776 0 1 tcp 1040 ------- 1 0.0 1.0 93 184
- 1.359776 0 1 tcp 1040 ------- 1 0.0 1.0 93 184
r 1.360608 1 0 ack 40 ------- 1 1.0 0.0 74 165
+ 1.360608 0 1 tcp 1040 ------- 1 0.0 1.0 94 185
- 1.360608 0 1 tcp 1040 ------- 1 0.0 1.0 94 185
r 1.36144 1 0 ack 40 ------- 1 1.0 0.0 75 166
+ 1.36144 0 1 tcp 1040 ------- 1 0.0 1.0 95 186
- 1.36144 0 1 tcp 1040 ------- 1 0.0 1.0 95 186
r 1.362272 1 0 ack 40 ------- 1 1.0 0.0 76 167
+ 1.362272 0 1 tcp 1040 ------- 1 0.0 1.0 96 187
- 1.362272 0 1 tcp 1040 ------- 1 0.0 1.0 96 187
r 1.363104 1 0 ack 40 ------- 1 1.0 0.0 77 168
+ 1.363104 0 1 tcp 1040 ------- 1 0.0 1.0 97 188
- 1.363104 0 1 tcp 1040 ------- 1 0.0 1.0 97 188
r 1.363936 1 0 ack 40 ------- 1 1.0 0.0 78 169
+ 1.363936 0 1 tcp 1040 ------- 1 0.0 1.0 98 189
- 1.363936 0 1 tcp 1040 ------- 1 0.0 1.0 98 189
r 1.364768 1 0 ack 40 ------- 1 1.0 0.0 79 170
+ 1.364768 0 1 tcp 1040 ------- 1 0.0 1.0 99 190
- 1.364768 0 1 tcp 1040 ------- 1 0.0 1.0 99 190
r 1.3656 1 0 ack 40 ------- 1 1.0 0.0 80 171
+ 1.3656 0 1 tcp 1040 ------- 1 0.0 1.0 100 191
- 1.3656 0 1 tcp 1040 ------- 1 0.0 1.0 100 191
r 1.366432 1 0 ack 40 ------- 1 1.0 0.0 81 172
+ 1.366432 0 1 tcp 1040 ------- 1 0.0 1.0 101 192
- 1.366432 0 1 tcp 1040 ------- 1 0.0 1.0 101 192
r 1.367264 1 0 ack 40 ------- 1 1.0 0.0 82 173
+ 1.367264 0 1 tcp 1040 ------- 1 0.0 1.0 102 193
- 1.367264 0 1 tcp 1040 ------- 1 0.0 1.0 102 193
r 1.368096 1 0 ack 40 ------- 1 1.0 0.0 83 174
+ 1.368096 0 1 tcp 1040 ------- 1 0.0 1.0 103 194
- 1.368096 0 1 tcp 1040 ------- 1 0.0 1.0 103 194
r 1.368928 1 0 ack 40 ------- 1 1.0 0.0 84 175
+ 1.368928 0 1 tcp 1040 ------- 1 0.0 1.0 104 195
- 1.368928 0 1 tcp 1040 ------- 1 0.0 1.0 104 195
r 1.36976 1 0 ack 40 ------- 1 1.0 0.0 85 176
+ 1.36976 0 1 tcp 1040 ------- 1 0.0 1.0 105 196
- 1.36976 0 1 tcp 1040 ------- 1 0.0 1.0 105 196
r 1.370592 1 0 ack 40 ------- 1 1.0 0.0 86 177
+ 1.370592 0 1 tcp 1040 ------- 1 0.0 1.0 106 197
- 1.370592 0 1 tcp 1040 ------- 1 0.0 1.0 106 197
r 1.371424 1 0 ack 40 ------- 1 1.0 0.0 87 178
+ 1.371424 0 1 tcp 1040 ------- 1 0.0 1.0 107 198
- 1.371424 0 1 tcp 1040 ------- 1 0.0 1.0 107 198
r 1.372256 1 0 ack 40 ------- 1 1.0 0.0 88 179
+ 1.372256 0 1 tcp 1040 ------- 1 0.0 1.0 108 199
- 1.372256 0 1 tcp 1040 ------- 1 0.0 1.0 108 199
r 1.373088 1 0 ack 40 ------- 1 1.0 0.0 89 180
+ 1.373088 0 1 tcp 1040 ------- 1 0.0 1.0 109 200
- 1.373088 0 1 tcp 1040 ------- 1 0.0 1.0 109 200
r 1.37392 1 0 ack 40 ------- 1 1.0 0.0 90 181
+ 1.37392 0 1 tcp 1040 ------- 1 0.0 1.0 110 201
- 1.37392 0 1 tcp 1040 ------- 1 0.0 1.0 110 201
r 1.380944 0 1 tcp 1040 ------- 1 0.0 1.0 91 182
+ 1.380944 1 0 ack 40 ------- 1 1.0 0.0 91 202
- 1.380944 1 0 ack 40 ------- 1 1.0 0.0 91 202
r 1.381776 0 1 tcp 1040 ------- 1 0.0 1.0 92 183
+ 1.381776 1 0 ack 40 ------- 1 1.0 0.0 92 203
- 1.381776 1 0 ack 40 ------- 1 1.0 0.0 92 203
r 1.382608 0 1 tcp 1040 ------- 1 0.0 1.0 93 184
+ 1.382608 1 0 ack 40 ------- 1 1.0 0.0 93 204
- 1.382608 1 0 ack 40 ------- 1 1.0 0.0 93 204
r 1.38344 0 1 tcp 1040 ------- 1 0.0 1.0 94 185
+ 1.38344 1 0 ack 40 ------- 1 1.0 0.0 94 205
- 1.38344 1 0 ack 40 ------- 1 1.0 0.0 94 205
r 1.384272 0 1 tcp 1040 ------- 1 0.0 1.0 95 186
+ 1.384272 1 0 ack 40 ------- 1 1.0 0.0 95 206
- 1.384272 1 0 ack 40 ------- 1 1.0 0.0 95 206
r 1.385104 0 1 tcp 1040 ------- 1 0.0 1.0 96 187
+ 1.385104 1 0 ack 40 ------- 1 1.0 0.0 96 207
- 1.385104 1 0 ack 40 ------- 1 1.0 0.0 96 207
r 1.385936 0 1 tcp 1040 ------- 1 0.0 1.0 97 188
+ 1.385936 1 0 ack 40 ------- 1 1.0 0.0 97 208
- 1.385936 1 0 ack 40 ------- 1 1.0 0.0 97 208
r 1.386768 0 1 tcp 1040 ------- 1 0.0 1.0 98 189
+ 1.386768 1 0 ack 40 ------- 1 1.0 0.0 98 209
- 1.386768 1 0 ack 40 ------- 1 1.0 0.0 98 209
r 1.3876 0 1 tcp 1040 ------- 1 0.0 1.0 99 190
+ 1.3876 1 0 ack 40 ------- 1 1.0 0.0 99 210
- 1.3876 1 0 ack 40 ------- 1 1.0 0.0 99 210
r 1.388432 0 1 tcp 1040 ------- 1 0.0 1.0 100 191
+ 1.388432 1 0 ack 40 ------- 1 1.0 0.0 100 211
- 1.388432 1 0 ack 40 ------- 1 1.0 0.0 100 211
r 1.389264 0 1 tcp 1040 ------- 1 0.0 1.0 101 192
+ 1.389264 1 0 ack 40 ------- 1 1.0 0.0 101 212
- 1.389264 1 0 ack 40 ------- 1 1.0 0.0 101 212
r 1.390096 0 1 tcp 1040 ------- 1 0.0 1.0 102 193
+ 1.390096 1 0 ack 40 ------- 1 1.0 0.0 102 213
- 1.390096 1 0 ack 40 ------- 1 1.0 0.0 102 213
r 1.390928 0 1 tcp 1040 ------- 1 0.0 1.0 103 194
+ 1.390928 1 0 ack 40 ------- 1 1.0 0.0 103 214
- 1.390928 1 0 ack 40 ------- 1 1.0 0.0 103 214
r 1.39176 0 1 tcp 1040 ------- 1 0.0 1.0 104 195
+ 1.39176 1 0 ack 40 ------- 1 1.0 0.0 104 215
- 1.39176 1 0 ack 40 ------- 1 1.0 0.0 104 215
r 1.392592 0 1 tcp 1040 ------- 1 0.0 1.0 105 196
+ 1.392592 1 0 ack 40 ------- 1 1.0 0.0 105 216
- 1.392592 1 0 ack 40 ------- 1 1.0 0.0 105 216
r 1.393424 0 1 tcp 1040 ------- 1 0.0 1.0 106 197
+ 1.393424 1 0 ack 40 ------- 1 1.0 0.0 106 217
- 1.393424 1 0 ack 40 ------- 1 1.0 0.0 106 217
r 1.394256 0 1 tcp 1040 ------- 1 0.0 1.0 107 198