+ 0.918317 1 2 tcp 40 ------- 0 1.0 4.0 0 0
- 0.918317 1 2 tcp 40 ------- 0 1.0 4.0 0 0
r 0.920637 1 2 tcp 40 ------- 0 1.0 4.0 0 0
+ 0.920637 2 3 tcp 40 ------- 0 1.0 4.0 0 0
- 0.920637 2 3 tcp 40 ------- 0 1.0 4.0 0 0
r 0.922797 2 3 tcp 40 ------- 0 1.0 4.0 0 0
+ 0.922797 3 4 tcp 40 ------- 0 1.0 4.0 0 0
- 0.922797 3 4 tcp 40 ------- 0 1.0 4.0 0 0
r 0.924957 3 4 tcp 40 ------- 0 1.0 4.0 0 0
+ 0.924957 4 3 ack 40 ------- 0 4.0 1.0 0 1
- 0.924957 4 3 ack 40 ------- 0 4.0 1.0 0 1
r 0.927117 4 3 ack 40 ------- 0 4.0 1.0 0 1
+ 0.927117 3 2 ack 40 ------- 0 4.0 1.0 0 1
- 0.927117 3 2 ack 40 ------- 0 4.0 1.0 0 1
r 0.929277 3 2 ack 40 ------- 0 4.0 1.0 0 1
+ 0.929277 2 1 ack 40 ------- 0 4.0 1.0 0 1
- 0.929277 2 1 ack 40 ------- 0 4.0 1.0 0 1
r 0.931597 2 1 ack 40 ------- 0 4.0 1.0 0 1
+ 0.931597 1 2 tcp 1040 ------- 0 1.0 4.0 1 2
- 0.931597 1 2 tcp 1040 ------- 0 1.0 4.0 1 2
r 0.941917 1 2 tcp 1040 ------- 0 1.0 4.0 1 2
+ 0.941917 2 3 tcp 1040 ------- 0 1.0 4.0 1 2
- 0.941917 2 3 tcp 1040 ------- 0 1.0 4.0 1 2
r 0.948077 2 3 tcp 1040 ------- 0 1.0 4.0 1 2
+ 0.948077 3 4 tcp 1040 ------- 0 1.0 4.0 1 2
- 0.948077 3 4 tcp 1040 ------- 0 1.0 4.0 1 2
r 0.954237 3 4 tcp 1040 ------- 0 1.0 4.0 1 2
+ 0.954237 4 3 ack 40 ------- 0 4.0 1.0 1 3
- 0.954237 4 3 ack 40 ------- 0 4.0 1.0 1 3
r 0.956397 4 3 ack 40 ------- 0 4.0 1.0 1 3
+ 0.956397 3 2 ack 40 ------- 0 4.0 1.0 1 3
- 0.956397 3 2 ack 40 ------- 0 4.0 1.0 1 3
r 0.958557 3 2 ack 40 ------- 0 4.0 1.0 1 3
+ 0.958557 2 1 ack 40 ------- 0 4.0 1.0 1 3
- 0.958557 2 1 ack 40 ------- 0 4.0 1.0 1 3
r 0.960877 2 1 ack 40 ------- 0 4.0 1.0 1 3
+ 1.1 0 2 tcp 40 ------- 0 0.0 5.0 0 4
- 1.1 0 2 tcp 40 ------- 0 0.0 5.0 0 4
r 1.10216 0 2 tcp 40 ------- 0 0.0 5.0 0 4
+ 1.10216 2 3 tcp 40 ------- 0 0.0 5.0 0 4
- 1.10216 2 3 tcp 40 ------- 0 0.0 5.0 0 4
r 1.10432 2 3 tcp 40 ------- 0 0.0 5.0 0 4
+ 1.10432 3 5 tcp 40 ------- 0 0.0 5.0 0 4
- 1.10432 3 5 tcp 40 ------- 0 0.0 5.0 0 4
r 1.10648 3 5 tcp 40 ------- 0 0.0 5.0 0 4
+ 1.10648 5 3 ack 40 ------- 0 5.0 0.0 0 5
- 1.10648 5 3 ack 40 ------- 0 5.0 0.0 0 5
r 1.10864 5 3 ack 40 ------- 0 5.0 0.0 0 5
+ 1.10864 3 2 ack 40 ------- 0 5.0 0.0 0 5
- 1.10864 3 2 ack 40 ------- 0 5.0 0.0 0 5
r 1.1108 3 2 ack 40 ------- 0 5.0 0.0 0 5
+ 1.1108 2 0 ack 40 ------- 0 5.0 0.0 0 5
- 1.1108 2 0 ack 40 ------- 0 5.0 0.0 0 5
r 1.11296 2 0 ack 40 ------- 0 5.0 0.0 0 5
+ 1.11296 0 2 tcp 1040 ------- 0 0.0 5.0 1 6
- 1.11296 0 2 tcp 1040 ------- 0 0.0 5.0 1 6
+ 1.11296 0 2 tcp 1040 ------- 0 0.0 5.0 2 7
- 1.11712 0 2 tcp 1040 ------- 0 0.0 5.0 2 7
r 1.11912 0 2 tcp 1040 ------- 0 0.0 5.0 1 6
+ 1.11912 2 3 tcp 1040 ------- 0 0.0 5.0 1 6
- 1.11912 2 3 tcp 1040 ------- 0 0.0 5.0 1 6
r 1.12328 0 2 tcp 1040 ------- 0 0.0 5.0 2 7
+ 1.12328 2 3 tcp 1040 ------- 0 0.0 5.0 2 7
- 1.12328 2 3 tcp 1040 ------- 0 0.0 5.0 2 7
r 1.12528 2 3 tcp 1040 ------- 0 0.0 5.0 1 6
+ 1.12528 3 5 tcp 1040 ------- 0 0.0 5.0 1 6
- 1.12528 3 5 tcp 1040 ------- 0 0.0 5.0 1 6
r 1.12944 2 3 tcp 1040 ------- 0 0.0 5.0 2 7
+ 1.12944 3 5 tcp 1040 ------- 0 0.0 5.0 2 7
- 1.12944 3 5 tcp 1040 ------- 0 0.0 5.0 2 7
r 1.13144 3 5 tcp 1040 ------- 0 0.0 5.0 1 6
+ 1.13144 5 3 ack 40 ------- 0 5.0 0.0 1 8
- 1.13144 5 3 ack 40 ------- 0 5.0 0.0 1 8
r 1.1336 5 3 ack 40 ------- 0 5.0 0.0 1 8
+ 1.1336 3 2 ack 40 ------- 0 5.0 0.0 1 8
- 1.1336 3 2 ack 40 ------- 0 5.0 0.0 1 8
r 1.1356 3 5 tcp 1040 ------- 0 0.0 5.0 2 7
+ 1.1356 5 3 ack 40 ------- 0 5.0 0.0 2 9
- 1.1356 5 3 ack 40 ------- 0 5.0 0.0 2 9
r 1.13576 3 2 ack 40 ------- 0 5.0 0.0 1 8
+ 1.13576 2 0 ack 40 ------- 0 5.0 0.0 1 8
- 1.13576 2 0 ack 40 ------- 0 5.0 0.0 1 8
r 1.13776 5 3 ack 40 ------- 0 5.0 0.0 2 9
+ 1.13776 3 2 ack 40 ------- 0 5.0 0.0 2 9
- 1.13776 3 2 ack 40 ------- 0 5.0 0.0 2 9
r 1.13792 2 0 ack 40 ------- 0 5.0 0.0 1 8
+ 1.13792 0 2 tcp 1040 ------- 0 0.0 5.0 3 10
- 1.13792 0 2 tcp 1040 ------- 0 0.0 5.0 3 10
+ 1.13792 0 2 tcp 1040 ------- 0 0.0 5.0 4 11
r 1.13992 3 2 ack 40 ------- 0 5.0 0.0 2 9
+ 1.13992 2 0 ack 40 ------- 0 5.0 0.0 2 9
- 1.13992 2 0 ack 40 ------- 0 5.0 0.0 2 9
- 1.14208 0 2 tcp 1040 ------- 0 0.0 5.0 4 11
r 1.14208 2 0 ack 40 ------- 0 5.0 0.0 2 9
+ 1.14208 0 2 tcp 1040 ------- 0 0.0 5.0 5 12
+ 1.14208 0 2 tcp 1040 ------- 0 0.0 5.0 6 13
+ 1.142517 1 2 tcp 1040 ------- 0 1.0 4.0 2 14
- 1.142517 1 2 tcp 1040 ------- 0 1.0 4.0 2 14
r 1.14408 0 2 tcp 1040 ------- 0 0.0 5.0 3 10
+ 1.14408 2 3 tcp 1040 ------- 0 0.0 5.0 3 10
- 1.14408 2 3 tcp 1040 ------- 0 0.0 5.0 3 10
- 1.14624 0 2 tcp 1040 ------- 0 0.0 5.0 5 12
r 1.14824 0 2 tcp 1040 ------- 0 0.0 5.0 4 11
+ 1.14824 2 3 tcp 1040 ------- 0 0.0 5.0 4 11
- 1.14824 2 3 tcp 1040 ------- 0 0.0 5.0 4 11
r 1.15024 2 3 tcp 1040 ------- 0 0.0 5.0 3 10
+ 1.15024 3 5 tcp 1040 ------- 0 0.0 5.0 3 10
- 1.15024 3 5 tcp 1040 ------- 0 0.0 5.0 3 10
- 1.1504 0 2 tcp 1040 ------- 0 0.0 5.0 6 13
r 1.1524 0 2 tcp 1040 ------- 0 0.0 5.0 5 12
+ 1.1524 2 3 tcp 1040 ------- 0 0.0 5.0 5 12
- 1.1524 2 3 tcp 1040 ------- 0 0.0 5.0 5 12
r 1.152837 1 2 tcp 1040 ------- 0 1.0 4.0 2 14
+ 1.152837 2 3 tcp 1040 ------- 0 1.0 4.0 2 14
r 1.1544 2 3 tcp 1040 ------- 0 0.0 5.0 4 11
+ 1.1544 3 5 tcp 1040 ------- 0 0.0 5.0 4 11
- 1.1544 3 5 tcp 1040 ------- 0 0.0 5.0 4 11
r 1.1564 3 5 tcp 1040 ------- 0 0.0 5.0 3 10
+ 1.1564 5 3 ack 40 ------- 0 5.0 0.0 3 15
- 1.1564 5 3 ack 40 ------- 0 5.0 0.0 3 15
r 1.15656 0 2 tcp 1040 ------- 0 0.0 5.0 6 13
+ 1.15656 2 3 tcp 1040 ------- 0 0.0 5.0 6 13
- 1.15656 2 3 tcp 1040 ------- 0 1.0 4.0 2 14
r 1.15856 2 3 tcp 1040 ------- 0 0.0 5.0 5 12
+ 1.15856 3 5 tcp 1040 ------- 0 0.0 5.0 5 12
- 1.15856 3 5 tcp 1040 ------- 0 0.0 5.0 5 12
r 1.15856 5 3 ack 40 ------- 0 5.0 0.0 3 15
+ 1.15856 3 2 ack 40 ------- 0 5.0 0.0 3 15
- 1.15856 3 2 ack 40 ------- 0 5.0 0.0 3 15
r 1.16056 3 5 tcp 1040 ------- 0 0.0 5.0 4 11
+ 1.16056 5 3 ack 40 ------- 0 5.0 0.0 4 16
- 1.16056 5 3 ack 40 ------- 0 5.0 0.0 4 16
- 1.16072 2 3 tcp 1040 ------- 0 0.0 5.0 6 13
r 1.16072 3 2 ack 40 ------- 0 5.0 0.0 3 15
+ 1.16072 2 0 ack 40 ------- 0 5.0 0.0 3 15
- 1.16072 2 0 ack 40 ------- 0 5.0 0.0 3 15
r 1.16272 2 3 tcp 1040 ------- 0 1.0 4.0 2 14
+ 1.16272 3 4 tcp 1040 ------- 0 1.0 4.0 2 14
- 1.16272 3 4 tcp 1040 ------- 0 1.0 4.0 2 14
r 1.16272 5 3 ack 40 ------- 0 5.0 0.0 4 16
+ 1.16272 3 2 ack 40 ------- 0 5.0 0.0 4 16
- 1.16272 3 2 ack 40 ------- 0 5.0 0.0 4 16
r 1.16288 2 0 ack 40 ------- 0 5.0 0.0 3 15
+ 1.16288 0 2 tcp 1040 ------- 0 0.0 5.0 7 17
- 1.16288 0 2 tcp 1040 ------- 0 0.0 5.0 7 17
+ 1.16288 0 2 tcp 1040 ------- 0 0.0 5.0 8 18
r 1.16472 3 5 tcp 1040 ------- 0 0.0 5.0 5 12
+ 1.16472 5 3 ack 40 ------- 0 5.0 0.0 5 19
- 1.16472 5 3 ack 40 ------- 0 5.0 0.0 5 19
r 1.16488 3 2 ack 40 ------- 0 5.0 0.0 4 16
+ 1.16488 2 0 ack 40 ------- 0 5.0 0.0 4 16
- 1.16488 2 0 ack 40 ------- 0 5.0 0.0 4 16
r 1.16688 2 3 tcp 1040 ------- 0 0.0 5.0 6 13
+ 1.16688 3 5 tcp 1040 ------- 0 0.0 5.0 6 13
- 1.16688 3 5 tcp 1040 ------- 0 0.0 5.0 6 13
r 1.16688 5 3 ack 40 ------- 0 5.0 0.0 5 19
+ 1.16688 3 2 ack 40 ------- 0 5.0 0.0 5 19
- 1.16688 3 2 ack 40 ------- 0 5.0 0.0 5 19
- 1.16704 0 2 tcp 1040 ------- 0 0.0 5.0 8 18
r 1.16704 2 0 ack 40 ------- 0 5.0 0.0 4 16
+ 1.16704 0 2 tcp 1040 ------- 0 0.0 5.0 9 20
+ 1.16704 0 2 tcp 1040 ------- 0 0.0 5.0 10 21
r 1.16888 3 4 tcp 1040 ------- 0 1.0 4.0 2 14
+ 1.16888 4 3 ack 40 ------- 0 4.0 1.0 2 22
- 1.16888 4 3 ack 40 ------- 0 4.0 1.0 2 22
r 1.16904 0 2 tcp 1040 ------- 0 0.0 5.0 7 17
+ 1.16904 2 3 tcp 1040 ------- 0 0.0 5.0 7 17
- 1.16904 2 3 tcp 1040 ------- 0 0.0 5.0 7 17
r 1.16904 3 2 ack 40 ------- 0 5.0 0.0 5 19
+ 1.16904 2 0 ack 40 ------- 0 5.0 0.0 5 19
- 1.16904 2 0 ack 40 ------- 0 5.0 0.0 5 19
r 1.17104 4 3 ack 40 ------- 0 4.0 1.0 2 22
+ 1.17104 3 2 ack 40 ------- 0 4.0 1.0 2 22
- 1.17104 3 2 ack 40 ------- 0 4.0 1.0 2 22
- 1.1712 0 2 tcp 1040 ------- 0 0.0 5.0 9 20
r 1.1712 2 0 ack 40 ------- 0 5.0 0.0 5 19
+ 1.1712 0 2 tcp 1040 ------- 0 0.0 5.0 11 23
+ 1.1712 0 2 tcp 1040 ------- 0 0.0 5.0 12 24
r 1.17304 3 5 tcp 1040 ------- 0 0.0 5.0 6 13
+ 1.17304 5 3 ack 40 ------- 0 5.0 0.0 6 25
- 1.17304 5 3 ack 40 ------- 0 5.0 0.0 6 25
r 1.1732 0 2 tcp 1040 ------- 0 0.0 5.0 8 18
+ 1.1732 2 3 tcp 1040 ------- 0 0.0 5.0 8 18
- 1.1732 2 3 tcp 1040 ------- 0 0.0 5.0 8 18
r 1.1732 3 2 ack 40 ------- 0 4.0 1.0 2 22
+ 1.1732 2 1 ack 40 ------- 0 4.0 1.0 2 22
- 1.1732 2 1 ack 40 ------- 0 4.0 1.0 2 22
r 1.1752 2 3 tcp 1040 ------- 0 0.0 5.0 7 17
+ 1.1752 3 5 tcp 1040 ------- 0 0.0 5.0 7 17
- 1.1752 3 5 tcp 1040 ------- 0 0.0 5.0 7 17
r 1.1752 5 3 ack 40 ------- 0 5.0 0.0 6 25
+ 1.1752 3 2 ack 40 ------- 0 5.0 0.0 6 25
- 1.1752 3 2 ack 40 ------- 0 5.0 0.0 6 25
- 1.17536 0 2 tcp 1040 ------- 0 0.0 5.0 10 21
r 1.17552 2 1 ack 40 ------- 0 4.0 1.0 2 22
r 1.17736 0 2 tcp 1040 ------- 0 0.0 5.0 9 20
+ 1.17736 2 3 tcp 1040 ------- 0 0.0 5.0 9 20
- 1.17736 2 3 tcp 1040 ------- 0 0.0 5.0 9 20
r 1.17736 3 2 ack 40 ------- 0 5.0 0.0 6 25
+ 1.17736 2 0 ack 40 ------- 0 5.0 0.0 6 25
- 1.17736 2 0 ack 40 ------- 0 5.0 0.0 6 25
r 1.17936 2 3 tcp 1040 ------- 0 0.0 5.0 8 18
+ 1.17936 3 5 tcp 1040 ------- 0 0.0 5.0 8 18
- 1.17936 3 5 tcp 1040 ------- 0 0.0 5.0 8 18
- 1.17952 0 2 tcp 1040 ------- 0 0.0 5.0 11 23
r 1.17952 2 0 ack 40 ------- 0 5.0 0.0 6 25
+ 1.17952 0 2 tcp 1040 ------- 0 0.0 5.0 13 26
+ 1.17952 0 2 tcp 1040 ------- 0 0.0 5.0 14 27
r 1.18136 3 5 tcp 1040 ------- 0 0.0 5.0 7 17
+ 1.18136 5 3 ack 40 ------- 0 5.0 0.0 7 28
- 1.18136 5 3 ack 40 ------- 0 5.0 0.0 7 28
r 1.18152 0 2 tcp 1040 ------- 0 0.0 5.0 10 21
+ 1.18152 2 3 tcp 1040 ------- 0 0.0 5.0 10 21
- 1.18152 2 3 tcp 1040 ------- 0 0.0 5.0 10 21
r 1.18352 2 3 tcp 1040 ------- 0 0.0 5.0 9 20
+ 1.18352 3 5 tcp 1040 ------- 0 0.0 5.0 9 20
- 1.18352 3 5 tcp 1040 ------- 0 0.0 5.0 9 20
r 1.18352 5 3 ack 40 ------- 0 5.0 0.0 7 28
+ 1.18352 3 2 ack 40 ------- 0 5.0 0.0 7 28
- 1.18352 3 2 ack 40 ------- 0 5.0 0.0 7 28
- 1.18368 0 2 tcp 1040 ------- 0 0.0 5.0 12 24
r 1.18552 3 5 tcp 1040 ------- 0 0.0 5.0 8 18
+ 1.18552 5 3 ack 40 ------- 0 5.0 0.0 8 29
- 1.18552 5 3 ack 40 ------- 0 5.0 0.0 8 29
r 1.18568 0 2 tcp 1040 ------- 0 0.0 5.0 11 23
+ 1.18568 2 3 tcp 1040 ------- 0 0.0 5.0 11 23
- 1.18568 2 3 tcp 1040 ------- 0 0.0 5.0 11 23
r 1.18568 3 2 ack 40 ------- 0 5.0 0.0 7 28
+ 1.18568 2 0 ack 40 ------- 0 5.0 0.0 7 28
- 1.18568 2 0 ack 40 ------- 0 5.0 0.0 7 28
r 1.18768 2 3 tcp 1040 ------- 0 0.0 5.0 10 21
+ 1.18768 3 5 tcp 1040 ------- 0 0.0 5.0 10 21
- 1.18768 3 5 tcp 1040 ------- 0 0.0 5.0 10 21
r 1.18768 5 3 ack 40 ------- 0 5.0 0.0 8 29
+ 1.18768 3 2 ack 40 ------- 0 5.0 0.0 8 29
- 1.18768 3 2 ack 40 ------- 0 5.0 0.0 8 29
- 1.18784 0 2 tcp 1040 ------- 0 0.0 5.0 13 26
r 1.18784 2 0 ack 40 ------- 0 5.0 0.0 7 28
+ 1.18784 0 2 tcp 1040 ------- 0 0.0 5.0 15 30
+ 1.18784 0 2 tcp 1040 ------- 0 0.0 5.0 16 31
r 1.18968 3 5 tcp 1040 ------- 0 0.0 5.0 9 20
+ 1.18968 5 3 ack 40 ------- 0 5.0 0.0 9 32
- 1.18968 5 3 ack 40 ------- 0 5.0 0.0 9 32
r 1.18984 0 2 tcp 1040 ------- 0 0.0 5.0 12 24
+ 1.18984 2 3 tcp 1040 ------- 0 0.0 5.0 12 24
- 1.18984 2 3 tcp 1040 ------- 0 0.0 5.0 12 24
r 1.18984 3 2 ack 40 ------- 0 5.0 0.0 8 29
+ 1.18984 2 0 ack 40 ------- 0 5.0 0.0 8 29
- 1.18984 2 0 ack 40 ------- 0 5.0 0.0 8 29
r 1.19184 2 3 tcp 1040 ------- 0 0.0 5.0 11 23
+ 1.19184 3 5 tcp 1040 ------- 0 0.0 5.0 11 23
- 1.19184 3 5 tcp 1040 ------- 0 0.0 5.0 11 23
r 1.19184 5 3 ack 40 ------- 0 5.0 0.0 9 32
+ 1.19184 3 2 ack 40 ------- 0 5.0 0.0 9 32
- 1.19184 3 2 ack 40 ------- 0 5.0 0.0 9 32
- 1.192 0 2 tcp 1040 ------- 0 0.0 5.0 14 27
r 1.192 2 0 ack 40 ------- 0 5.0 0.0 8 29
+ 1.192 0 2 tcp 1040 ------- 0 0.0 5.0 17 33
+ 1.192 0 2 tcp 1040 ------- 0 0.0 5.0 18 34
r 1.19384 3 5 tcp 1040 ------- 0 0.0 5.0 10 21
+ 1.19384 5 3 ack 40 ------- 0 5.0 0.0 10 35
- 1.19384 5 3 ack 40 ------- 0 5.0 0.0 10 35
r 1.194 0 2 tcp 1040 ------- 0 0.0 5.0 13 26
+ 1.194 2 3 tcp 1040 ------- 0 0.0 5.0 13 26
- 1.194 2 3 tcp 1040 ------- 0 0.0 5.0 13 26
r 1.194 3 2 ack 40 ------- 0 5.0 0.0 9 32
+ 1.194 2 0 ack 40 ------- 0 5.0 0.0 9 32
- 1.194 2 0 ack 40 ------- 0 5.0 0.0 9 32
r 1.196 2 3 tcp 1040 ------- 0 0.0 5.0 12 24
+ 1.196 3 5 tcp 1040 ------- 0 0.0 5.0 12 24
- 1.196 3 5 tcp 1040 ------- 0 0.0 5.0 12 24
r 1.196 5 3 ack 40 ------- 0 5.0 0.0 10 35
+ 1.196 3 2 ack 40 ------- 0 5.0 0.0 10 35
- 1.196 3 2 ack 40 ------- 0 5.0 0.0 10 35
- 1.19616 0 2 tcp 1040 ------- 0 0.0 5.0 15 30
r 1.19616 2 0 ack 40 ------- 0 5.0 0.0 9 32
+ 1.19616 0 2 tcp 1040 ------- 0 0.0 5.0 19 36
+ 1.19616 0 2 tcp 1040 ------- 0 0.0 5.0 20 37
r 1.198 3 5 tcp 1040 ------- 0 0.0 5.0 11 23
+ 1.198 5 3 ack 40 ------- 0 5.0 0.0 11 38
- 1.198 5 3 ack 40 ------- 0 5.0 0.0 11 38
r 1.19816 0 2 tcp 1040 ------- 0 0.0 5.0 14 27
+ 1.19816 2 3 tcp 1040 ------- 0 0.0 5.0 14 27
- 1.19816 2 3 tcp 1040 ------- 0 0.0 5.0 14 27
r 1.19816 3 2 ack 40 ------- 0 5.0 0.0 10 35
+ 1.19816 2 0 ack 40 ------- 0 5.0 0.0 10 35
- 1.19816 2 0 ack 40 ------- 0 5.0 0.0 10 35
r 1.20016 2 3 tcp 1040 ------- 0 0.0 5.0 13 26
+ 1.20016 3 5 tcp 1040 ------- 0 0.0 5.0 13 26
- 1.20016 3 5 tcp 1040 ------- 0 0.0 5.0 13 26
r 1.20016 5 3 ack 40 ------- 0 5.0 0.0 11 38
+ 1.20016 3 2 ack 40 ------- 0 5.0 0.0 11 38
- 1.20016 3 2 ack 40 ------- 0 5.0 0.0 11 38
- 1.20032 0 2 tcp 1040 ------- 0 0.0 5.0 16 31
r 1.20032 2 0 ack 40 ------- 0 5.0 0.0 10 35
+ 1.20032 0 2 tcp 1040 ------- 0 0.0 5.0 21 39
+ 1.20032 0 2 tcp 1040 ------- 0 0.0 5.0 22 40
r 1.20216 3 5 tcp 1040 ------- 0 0.0 5.0 12 24
+ 1.20216 5 3 ack 40 ------- 0 5.0 0.0 12 41
- 1.20216 5 3 ack 40 ------- 0 5.0 0.0 12 41
r 1.20232 0 2 tcp 1040 ------- 0 0.0 5.0 15 30
+ 1.20232 2 3 tcp 1040 ------- 0 0.0 5.0 15 30
- 1.20232 2 3 tcp 1040 ------- 0 0.0 5.0 15 30
r 1.20232 3 2 ack 40 ------- 0 5.0 0.0 11 38
+ 1.20232 2 0 ack 40 ------- 0 5.0 0.0 11 38
- 1.20232 2 0 ack 40 ------- 0 5.0 0.0 11 38
r 1.20432 2 3 tcp 1040 ------- 0 0.0 5.0 14 27
+ 1.20432 3 5 tcp 1040 ------- 0 0.0 5.0 14 27
- 1.20432 3 5 tcp 1040 ------- 0 0.0 5.0 14 27
r 1.20432 5 3 ack 40 ------- 0 5.0 0.0 12 41
+ 1.20432 3 2 ack 40 ------- 0 5.0 0.0 12 41
- 1.20432 3 2 ack 40 ------- 0 5.0 0.0 12 41
- 1.20448 0 2 tcp 1040 ------- 0 0.0 5.0 17 33
r 1.20448 2 0 ack 40 ------- 0 5.0 0.0 11 38
+ 1.20448 0 2 tcp 1040 ------- 0 0.0 5.0 23 42
+ 1.20448 0 2 tcp 1040 ------- 0 0.0 5.0 24 43
r 1.20632 3 5 tcp 1040 ------- 0 0.0 5.0 13 26
+ 1.20632 5 3 ack 40 ------- 0 5.0 0.0 13 44
- 1.20632 5 3 ack 40 ------- 0 5.0 0.0 13 44
r 1.20648 0 2 tcp 1040 ------- 0 0.0 5.0 16 31
+ 1.20648 2 3 tcp 1040 ------- 0 0.0 5.0 16 31
- 1.20648 2 3 tcp 1040 ------- 0 0.0 5.0 16 31
r 1.20648 3 2 ack 40 ------- 0 5.0 0.0 12 41
+ 1.20648 2 0 ack 40 ------- 0 5.0 0.0 12 41
- 1.20648 2 0 ack 40 ------- 0 5.0 0.0 12 41
r 1.20848 2 3 tcp 1040 ------- 0 0.0 5.0 15 30
+ 1.20848 3 5 tcp 1040 ------- 0 0.0 5.0 15 30
- 1.20848 3 5 tcp 1040 ------- 0 0.0 5.0 15 30
r 1.20848 5 3 ack 40 ------- 0 5.0 0.0 13 44
+ 1.20848 3 2 ack 40 ------- 0 5.0 0.0 13 44
- 1.20848 3 2 ack 40 ------- 0 5.0 0.0 13 44
- 1.20864 0 2 tcp 1040 ------- 0 0.0 5.0 18 34
r 1.20864 2 0 ack 40 ------- 0 5.0 0.0 12 41
+ 1.20864 0 2 tcp 1040 ------- 0 0.0 5.0 25 45
+ 1.20864 0 2 tcp 1040 ------- 0 0.0 5.0 26 46
r 1.21048 3 5 tcp 1040 ------- 0 0.0 5.0 14 27
+ 1.21048 5 3 ack 40 ------- 0 5.0 0.0 14 47
- 1.21048 5 3 ack 40 ------- 0 5.0 0.0 14 47
r 1.21064 0 2 tcp 1040 ------- 0 0.0 5.0 17 33
+ 1.21064 2 3 tcp 1040 ------- 0 0.0 5.0 17 33
- 1.21064 2 3 tcp 1040 ------- 0 0.0 5.0 17 33
r 1.21064 3 2 ack 40 ------- 0 5.0 0.0 13 44
+ 1.21064 2 0 ack 40 ------- 0 5.0 0.0 13 44
- 1.21064 2 0 ack 40 ------- 0 5.0 0.0 13 44
r 1.21264 2 3 tcp 1040 ------- 0 0.0 5.0 16 31
+ 1.21264 3 5 tcp 1040 ------- 0 0.0 5.0 16 31
- 1.21264 3 5 tcp 1040 ------- 0 0.0 5.0 16 31
r 1.21264 5 3 ack 40 ------- 0 5.0 0.0 14 47
+ 1.21264 3 2 ack 40 ------- 0 5.0 0.0 14 47
- 1.21264 3 2 ack 40 ------- 0 5.0 0.0 14 47
- 1.2128 0 2 tcp 1040 ------- 0 0.0 5.0 19 36
r 1.2128 2 0 ack 40 ------- 0 5.0 0.0 13 44
+ 1.2128 0 2 tcp 1040 ------- 0 0.0 5.0 27 48
+ 1.2128 0 2 tcp 1040 ------- 0 0.0 5.0 28 49
r 1.21464 3 5 tcp 1040 ------- 0 0.0 5.0 15 30
+ 1.21464 5 3 ack 40 ------- 0 5.0 0.0 15 50
- 1.21464 5 3 ack 40 ------- 0 5.0 0.0 15 50
r 1.2148 0 2 tcp 1040 ------- 0 0.0 5.0 18 34
+ 1.2148 2 3 tcp 1040 ------- 0 0.0 5.0 18 34
- 1.2148 2 3 tcp 1040 ------- 0 0.0 5.0 18 34
r 1.2148 3 2 ack 40 ------- 0 5.0 0.0 14 47
+ 1.2148 2 0 ack 40 ------- 0 5.0 0.0 14 47
- 1.2148 2 0 ack 40 ------- 0 5.0 0.0 14 47
r 1.2168 2 3 tcp 1040 ------- 0 0.0 5.0 17 33
+ 1.2168 3 5 tcp 1040 ------- 0 0.0 5.0 17 33
- 1.2168 3 5 tcp 1040 ------- 0 0.0 5.0 17 33
r 1.2168 5 3 ack 40 ------- 0 5.0 0.0 15 50
+ 1.2168 3 2 ack 40 ------- 0 5.0 0.0 15 50
- 1.2168 3 2 ack 40 ------- 0 5.0 0.0 15 50
- 1.21696 0 2 tcp 1040 ------- 0 0.0 5.0 20 37
r 1.21696 2 0 ack 40 ------- 0 5.0 0.0 14 47
+ 1.21696 0 2 tcp 1040 ------- 0 0.0 5.0 29 51
+ 1.21696 0 2 tcp 1040 ------- 0 0.0 5.0 30 52
r 1.2188 3 5 tcp 1040 ------- 0 0.0 5.0 16 31
+ 1.2188 5 3 ack 40 ------- 0 5.0 0.0 16 53
- 1.2188 5 3 ack 40 ------- 0 5.0 0.0 16 53
r 1.21896 0 2 tcp 1040 ------- 0 0.0 5.0 19 36
+ 1.21896 2 3 tcp 1040 ------- 0 0.0 5.0 19 36
- 1.21896 2 3 tcp 1040 ------- 0 0.0 5.0 19 36
r 1.21896 3 2 ack 40 ------- 0 5.0 0.0 15 50
+ 1.21896 2 0 ack 40 ------- 0 5.0 0.0 15 50
- 1.21896 2 0 ack 40 ------- 0 5.0 0.0 15 50
r 1.22096 2 3 tcp 1040 ------- 0 0.0 5.0 18 34
+ 1.22096 3 5 tcp 1040 ------- 0 0.0 5.0 18 34
- 1.22096 3 5 tcp 1040 ------- 0 0.0 5.0 18 34
r 1.22096 5 3 ack 40 ------- 0 5.0 0.0 16 53
+ 1.22096 3 2 ack 40 ------- 0 5.0 0.0 16 53
- 1.22096 3 2 ack 40 ------- 0 5.0 0.0 16 53
- 1.22112 0 2 tcp 1040 ------- 0 0.0 5.0 21 39
r 1.22112 2 0 ack 40 ------- 0 5.0 0.0 15 50
+ 1.22112 0 2 tcp 1040 ------- 0 0.0 5.0 31 54
+ 1.22112 0 2 tcp 1040 ------- 0 0.0 5.0 32 55
r 1.22296 3 5 tcp 1040 ------- 0 0.0 5.0 17 33
+ 1.22296 5 3 ack 40 ------- 0 5.0 0.0 17 56
- 1.22296 5 3 ack 40 ------- 0 5.0 0.0 17 56
r 1.22312 0 2 tcp 1040 ------- 0 0.0 5.0 20 37
+ 1.22312 2 3 tcp 1040 ------- 0 0.0 5.0 20 37
- 1.22312 2 3 tcp 1040 ------- 0 0.0 5.0 20 37
r 1.22312 3 2 ack 40 ------- 0 5.0 0.0 16 53
+ 1.22312 2 0 ack 40 ------- 0 5.0 0.0 16 53
- 1.22312 2 0 ack 40 ------- 0 5.0 0.0 16 53
r 1.22512 2 3 tcp 1040 ------- 0 0.0 5.0 19 36
+ 1.22512 3 5 tcp 1040 ------- 0 0.0 5.0 19 36
- 1.22512 3 5 tcp 1040 ------- 0 0.0 5.0 19 36
r 1.22512 5 3 ack 40 ------- 0 5.0 0.0 17 56
+ 1.22512 3 2 ack 40 ------- 0 5.0 0.0 17 56
- 1.22512 3 2 ack 40 ------- 0 5.0 0.0 17 56
- 1.22528 0 2 tcp 1040 ------- 0 0.0 5.0 22 40
r 1.22528 2 0 ack 40 ------- 0 5.0 0.0 16 53
+ 1.22528 0 2 tcp 1040 ------- 0 0.0 5.0 33 57
+ 1.22528 0 2 tcp 1040 ------- 0 0.0 5.0 34 58
r 1.22712 3 5 tcp 1040 ------- 0 0.0 5.0 18 34
+ 1.22712 5 3 ack 40 ------- 0 5.0 0.0 18 59
- 1.22712 5 3 ack 40 ------- 0 5.0 0.0 18 59
r 1.22728 0 2 tcp 1040 ------- 0 0.0 5.0 21 39
+ 1.22728 2 3 tcp 1040 ------- 0 0.0 5.0 21 39
- 1.22728 2 3 tcp 1040 ------- 0 0.0 5.0 21 39
r 1.22728 3 2 ack 40 ------- 0 5.0 0.0 17 56
+ 1.22728 2 0 ack 40 ------- 0 5.0 0.0 17 56
- 1.22728 2 0 ack 40 ------- 0 5.0 0.0 17 56
r 1.22928 2 3 tcp 1040 ------- 0 0.0 5.0 20 37
+ 1.22928 3 5 tcp 1040 ------- 0 0.0 5.0 20 37
- 1.22928 3 5 tcp 1040 ------- 0 0.0 5.0 20 37
r 1.22928 5 3 ack 40 ------- 0 5.0 0.0 18 59
+ 1.22928 3 2 ack 40 ------- 0 5.0 0.0 18 59
- 1.22928 3 2 ack 40 ------- 0 5.0 0.0 18 59
- 1.22944 0 2 tcp 1040 ------- 0 0.0 5.0 23 42
r 1.22944 2 0 ack 40 ------- 0 5.0 0.0 17 56
+ 1.22944 0 2 tcp 1040 ------- 0 0.0 5.0 35 60
+ 1.22944 0 2 tcp 1040 ------- 0 0.0 5.0 36 61
r 1.23128 3 5 tcp 1040 ------- 0 0.0 5.0 19 36
+ 1.23128 5 3 ack 40 ------- 0 5.0 0.0 19 62
- 1.23128 5 3 ack 40 ------- 0 5.0 0.0 19 62
r 1.23144 0 2 tcp 1040 ------- 0 0.0 5.0 22 40
+ 1.23144 2 3 tcp 1040 ------- 0 0.0 5.0 22 40
- 1.23144 2 3 tcp 1040 ------- 0 0.0 5.0 22 40
r 1.23144 3 2 ack 40 ------- 0 5.0 0.0 18 59
+ 1.23144 2 0 ack 40 ------- 0 5.0 0.0 18 59
- 1.23144 2 0 ack 40 ------- 0 5.0 0.0 18 59
r 1.23344 2 3 tcp 1040 ------- 0 0.0 5.0 21 39
+ 1.23344 3 5 tcp 1040 ------- 0 0.0 5.0 21 39
- 1.23344 3 5 tcp 1040 ------- 0 0.0 5.0 21 39
r 1.23344 5 3 ack 40 ------- 0 5.0 0.0 19 62
+ 1.23344 3 2 ack 40 ------- 0 5.0 0.0 19 62
- 1.23344 3 2 ack 40 ------- 0 5.0 0.0 19 62
- 1.2336 0 2 tcp 1040 ------- 0 0.0 5.0 24 43
r 1.2336 2 0 ack 40 ------- 0 5.0 0.0 18 59
+ 1.2336 0 2 tcp 1040 ------- 0 0.0 5.0 37 63
+ 1.2336 0 2 tcp 1040 ------- 0 0.0 5.0 38 64
r 1.23544 3 5 tcp 1040 ------- 0 0.0 5.0 20 37
+ 1.23544 5 3 ack 40 ------- 0 5.0 0.0 20 65
- 1.23544 5 3 ack 40 ------- 0 5.0 0.0 20 65
r 1.2356 0 2 tcp 1040 ------- 0 0.0 5.0 23 42
+ 1.2356 2 3 tcp 1040 ------- 0 0.0 5.0 23 42
- 1.2356 2 3 tcp 1040 ------- 0 0.0 5.0 23 42
r 1.2356 3 2 ack 40 ------- 0 5.0 0.0 19 62
+ 1.2356 2 0 ack 40 ------- 0 5.0 0.0 19 62
- 1.2356 2 0 ack 40 ------- 0 5.0 0.0 19 62
r 1.2376 2 3 tcp 1040 ------- 0 0.0 5.0 22 40
+ 1.2376 3 5 tcp 1040 ------- 0 0.0 5.0 22 40
- 1.2376 3 5 tcp 1040 ------- 0 0.0 5.0 22 40
r 1.2376 5 3 ack 40 ------- 0 5.0 0.0 20 65
+ 1.2376 3 2 ack 40 ------- 0 5.0 0.0 20 65
- 1.2376 3 2 ack 40 ------- 0 5.0 0.0 20 65
- 1.23776 0 2 tcp 1040 ------- 0 0.0 5.0 25 45
r 1.23776 2 0 ack 40 ------- 0 5.0 0.0 19 62
+ 1.23776 0 2 tcp 1040 ------- 0 0.0 5.0 39 66
r 1.2396 3 5 tcp 1040 ------- 0 0.0 5.0 21 39
+ 1.2396 5 3 ack 40 ------- 0 5.0 0.0 21 67
- 1.2396 5 3 ack 40 ------- 0 5.0 0.0 21 67
r 1.23976 0 2 tcp 1040 ------- 0 0.0 5.0 24 43
+ 1.23976 2 3 tcp 1040 ------- 0 0.0 5.0 24 43
- 1.23976 2 3 tcp 1040 ------- 0 0.0 5.0 24 43
r 1.23976 3 2 ack 40 ------- 0 5.0 0.0 20 65
+ 1.23976 2 0 ack 40 ------- 0 5.0 0.0 20 65
- 1.23976 2 0 ack 40 ------- 0 5.0 0.0 20 65
r 1.24176 2 3 tcp 1040 ------- 0 0.0 5.0 23 42
+ 1.24176 3 5 tcp 1040 ------- 0 0.0 5.0 23 42
- 1.24176 3 5 tcp 1040 ------- 0 0.0 5.0 23 42
r 1.24176 5 3 ack 40 ------- 0 5.0 0.0 21 67
+ 1.24176 3 2 ack 40 ------- 0 5.0 0.0 21 67
- 1.24176 3 2 ack 40 ------- 0 5.0 0.0 21 67
- 1.24192 0 2 tcp 1040 ------- 0 0.0 5.0 26 46
r 1.24192 2 0 ack 40 ------- 0 5.0 0.0 20 65
+ 1.24192 0 2 tcp 1040 ------- 0 0.0 5.0 40 68
r 1.24376 3 5 tcp 1040 ------- 0 0.0 5.0 22 40
+ 1.24376 5 3 ack 40 ------- 0 5.0 0.0 22 69
- 1.24376 5 3 ack 40 ------- 0 5.0 0.0 22 69
r 1.24392 0 2 tcp 1040 ------- 0 0.0 5.0 25 45
+ 1.24392 2 3 tcp 1040 ------- 0 0.0 5.0 25 45
- 1.24392 2 3 tcp 1040 ------- 0 0.0 5.0 25 45
r 1.24392 3 2 ack 40 ------- 0 5.0 0.0 21 67
+ 1.24392 2 0 ack 40 ------- 0 5.0 0.0 21 67
- 1.24392 2 0 ack 40 ------- 0 5.0 0.0 21 67
r 1.24592 2 3 tcp 1040 ------- 0 0.0 5.0 24 43
+ 1.24592 3 5 tcp 1040 ------- 0 0.0 5.0 24 43
- 1.24592 3 5 tcp 1040 ------- 0 0.0 5.0 24 43
r 1.24592 5 3 ack 40 ------- 0 5.0 0.0 22 69
+ 1.24592 3 2 ack 40 ------- 0 5.0 0.0 22 69
- 1.24592 3 2 ack 40 ------- 0 5.0 0.0 22 69
- 1.24608 0 2 tcp 1040 ------- 0 0.0 5.0 27 48
r 1.24608 2 0 ack 40 ------- 0 5.0 0.0 21 67
+ 1.24608 0 2 tcp 1040 ------- 0 0.0 5.0 41 70
r 1.24792 3 5 tcp 1040 ------- 0 0.0 5.0 23 42
+ 1.24792 5 3 ack 40 ------- 0 5.0 0.0 23 71
- 1.24792 5 3 ack 40 ------- 0 5.0 0.0 23 71
r 1.24808 0 2 tcp 1040 ------- 0 0.0 5.0 26 46
+ 1.24808 2 3 tcp 1040 ------- 0 0.0 5.0 26 46
- 1.24808 2 3 tcp 1040 ------- 0 0.0 5.0 26 46
r 1.24808 3 2 ack 40 ------- 0 5.0 0.0 22 69
+ 1.24808 2 0 ack 40 ------- 0 5.0 0.0 22 69
- 1.24808 2 0 ack 40 ------- 0 5.0 0.0 22 69
r 1.25008 2 3 tcp 1040 ------- 0 0.0 5.0 25 45
+ 1.25008 3 5 tcp 1040 ------- 0 0.0 5.0 25 45
- 1.25008 3 5 tcp 1040 ------- 0 0.0 5.0 25 45
r 1.25008 5 3 ack 40 ------- 0 5.0 0.0 23 71
+ 1.25008 3 2 ack 40 ------- 0 5.0 0.0 23 71
- 1.25008 3 2 ack 40 ------- 0 5.0 0.0 23 71
- 1.25024 0 2 tcp 1040 ------- 0 0.0 5.0 28 49
r 1.25024 2 0 ack 40 ------- 0 5.0 0.0 22 69
+ 1.25024 0 2 tcp 1040 ------- 0 0.0 5.0 42 72
r 1.25208 3 5 tcp 1040 ------- 0 0.0 5.0 24 43
+ 1.25208 5 3 ack 40 ------- 0 5.0 0.0 24 73
- 1.25208 5 3 ack 40 ------- 0 5.0 0.0 24 73
r 1.25224 0 2 tcp 1040 ------- 0 0.0 5.0 27 48
+ 1.25224 2 3 tcp 1040 ------- 0 0.0 5.0 27 48
- 1.25224 2 3 tcp 1040 ------- 0 0.0 5.0 27 48
r 1.25224 3 2 ack 40 ------- 0 5.0 0.0 23 71
+ 1.25224 2 0 ack 40 ------- 0 5.0 0.0 23 71
- 1.25224 2 0 ack 40 ------- 0 5.0 0.0 23 71
r 1.25424 2 3 tcp 1040 ------- 0 0.0 5.0 26 46
+ 1.25424 3 5 tcp 1040 ------- 0 0.0 5.0 26 46
- 1.25424 3 5 tcp 1040 ------- 0 0.0 5.0 26 46
r 1.25424 5 3 ack 40 ------- 0 5.0 0.0 24 73
+ 1.25424 3 2 ack 40 ------- 0 5.0 0.0 24 73
- 1.25424 3 2 ack 40 ------- 0 5.0 0.0 24 73
- 1.2544 0 2 tcp 1040 ------- 0 0.0 5.0 29 51
r 1.2544 2 0 ack 40 ------- 0 5.0 0.0 23 71
+ 1.2544 0 2 tcp 1040 ------- 0 0.0 5.0 43 74
r 1.25624 3 5 tcp 1040 ------- 0 0.0 5.0 25 45
+ 1.25624 5 3 ack 40 ------- 0 5.0 0.0 25 75
- 1.25624 5 3 ack 40 ------- 0 5.0 0.0 25 75
r 1.2564 0 2 tcp 1040 ------- 0 0.0 5.0 28 49
+ 1.2564 2 3 tcp 1040 ------- 0 0.0 5.0 28 49
- 1.2564 2 3 tcp 1040 ------- 0 0.0 5.0 28 49
r 1.2564 3 2 ack 40 ------- 0 5.0 0.0 24 73
+ 1.2564 2 0 ack 40 ------- 0 5.0 0.0 24 73
- 1.2564 2 0 ack 40 ------- 0 5.0 0.0 24 73
r 1.2584 2 3 tcp 1040 ------- 0 0.0 5.0 27 48
+ 1.2584 3 5 tcp 1040 ------- 0 0.0 5.0 27 48
- 1.2584 3 5 tcp 1040 ------- 0 0.0 5.0 27 48
r 1.2584 5 3 ack 40 ------- 0 5.0 0.0 25 75
+ 1.2584 3 2 ack 40 ------- 0 5.0 0.0 25 75
- 1.2584 3 2 ack 40 ------- 0 5.0 0.0 25 75
- 1.25856 0 2 tcp 1040 ------- 0 0.0 5.0 30 52
r 1.25856 2 0 ack 40 ------- 0 5.0 0.0 24 73
+ 1.25856 0 2 tcp 1040 ------- 0 0.0 5.0 44 76
r 1.2604 3 5 tcp 1040 ------- 0 0.0 5.0 26 46
+ 1.2604 5 3 ack 40 ------- 0 5.0 0.0 26 77
- 1.2604 5 3 ack 40 ------- 0 5.0 0.0 26 77
r 1.26056 0 2 tcp 1040 ------- 0 0.0 5.0 29 51
+ 1.26056 2 3 tcp 1040 ------- 0 0.0 5.0 29 51
- 1.26056 2 3 tcp 1040 ------- 0 0.0 5.0 29 51
r 1.26056 3 2 ack 40 ------- 0 5.0 0.0 25 75
+ 1.26056 2 0 ack 40 ------- 0 5.0 0.0 25 75
- 1.26056 2 0 ack 40 ------- 0 5.0 0.0 25 75
r 1.26256 2 3 tcp 1040 ------- 0 0.0 5.0 28 49
+ 1.26256 3 5 tcp 1040 ------- 0 0.0 5.0 28 49
- 1.26256 3 5 tcp 1040 ------- 0 0.0 5.0 28 49
r 1.26256 5 3 ack 40 ------- 0 5.0 0.0 26 77
+ 1.26256 3 2 ack 40 ------- 0 5.0 0.0 26 77
- 1.26256 3 2 ack 40 ------- 0 5.0 0.0 26 77
- 1.26272 0 2 tcp 1040 ------- 0 0.0 5.0 31 54
r 1.26272 2 0 ack 40 ------- 0 5.0 0.0 25 75
+ 1.26272 0 2 tcp 1040 ------- 0 0.0 5.0 45 78
r 1.26456 3 5 tcp 1040 ------- 0 0.0 5.0 27 48
+ 1.26456 5 3 ack 40 ------- 0 5.0 0.0 27 79
- 1.26456 5 3 ack 40 ------- 0 5.0 0.0 27 79
r 1.26472 0 2 tcp 1040 ------- 0 0.0 5.0 30 52
+ 1.26472 2 3 tcp 1040 ------- 0 0.0 5.0 30 52
- 1.26472 2 3 tcp 1040 ------- 0 0.0 5.0 30 52
r 1.26472 3 2 ack 40 ------- 0 5.0 0.0 26 77
+ 1.26472 2 0 ack 40 ------- 0 5.0 0.0 26 77
- 1.26472 2 0 ack 40 ------- 0 5.0 0.0 26 77
r 1.26672 2 3 tcp 1040 ------- 0 0.0 5.0 29 51
+ 1.26672 3 5 tcp 1040 ------- 0 0.0 5.0 29 51
- 1.26672 3 5 tcp 1040 ------- 0 0.0 5.0 29 51
r 1.26672 5 3 ack 40 ------- 0 5.0 0.0 27 79
+ 1.26672 3 2 ack 40 ------- 0 5.0 0.0 27 79
- 1.26672 3 2 ack 40 ------- 0 5.0 0.0 27 79
- 1.26688 0 2 tcp 1040 ------- 0 0.0 5.0 32 55
r 1.26688 2 0 ack 40 ------- 0 5.0 0.0 26 77
+ 1.26688 0 2 tcp 1040 ------- 0 0.0 5.0 46 80
r 1.26872 3 5 tcp 1040 ------- 0 0.0 5.0 28 49
+ 1.26872 5 3 ack 40 ------- 0 5.0 0.0 28 81
- 1.26872 5 3 ack 40 ------- 0 5.0 0.0 28 81
r 1.26888 0 2 tcp 1040 ------- 0 0.0 5.0 31 54
+ 1.26888 2 3 tcp 1040 ------- 0 0.0 5.0 31 54
- 1.26888 2 3 tcp 1040 ------- 0 0.0 5.0 31 54
r 1.26888 3 2 ack 40 ------- 0 5.0 0.0 27 79
+ 1.26888 2 0 ack 40 ------- 0 5.0 0.0 27 79
- 1.26888 2 0 ack 40 ------- 0 5.0 0.0 27 79
r 1.27088 2 3 tcp 1040 ------- 0 0.0 5.0 30 52
+ 1.27088 3 5 tcp 1040 ------- 0 0.0 5.0 30 52
- 1.27088 3 5 tcp 1040 ------- 0 0.0 5.0 30 52
r 1.27088 5 3 ack 40 ------- 0 5.0 0.0 28 81
+ 1.27088 3 2 ack 40 ------- 0 5.0 0.0 28 81
- 1.27088 3 2 ack 40 ------- 0 5.0 0.0 28 81
- 1.27104 0 2 tcp 1040 ------- 0 0.0 5.0 33 57
r 1.27104 2 0 ack 40 ------- 0 5.0 0.0 27 79
+ 1.27104 0 2 tcp 1040 ------- 0 0.0 5.0 47 82
r 1.27288 3 5 tcp 1040 ------- 0 0.0 5.0 29 51
+ 1.27288 5 3 ack 40 ------- 0 5.0 0.0 29 83
- 1.27288 5 3 ack 40 ------- 0 5.0 0.0 29 83
r 1.27304 0 2 tcp 1040 ------- 0 0.0 5.0 32 55
+ 1.27304 2 3 tcp 1040 ------- 0 0.0 5.0 32 55
- 1.27304 2 3 tcp 1040 ------- 0 0.0 5.0 32 55
r 1.27304 3 2 ack 40 ------- 0 5.0 0.0 28 81
+ 1.27304 2 0 ack 40 ------- 0 5.0 0.0 28 81
- 1.27304 2 0 ack 40 ------- 0 5.0 0.0 28 81
r 1.27504 2 3 tcp 1040 ------- 0 0.0 5.0 31 54
+ 1.27504 3 5 tcp 1040 ------- 0 0.0 5.0 31 54
- 1.27504 3 5 tcp 1040 ------- 0 0.0 5.0 31 54
r 1.27504 5 3 ack 40 ------- 0 5.0 0.0 29 83
+ 1.27504 3 2 ack 40 ------- 0 5.0 0.0 29 83
- 1.27504 3 2 ack 40 ------- 0 5.0 0.0 29 83
- 1.2752 0 2 tcp 1040 ------- 0 0.0 5.0 34 58
r 1.2752 2 0 ack 40 ------- 0 5.0 0.0 28 81
+ 1.2752 0 2 tcp 1040 ------- 0 0.0 5.0 48 84
r 1.27704 3 5 tcp 1040 ------- 0 0.0 5.0 30 52
+ 1.27704 5 3 ack 40 ------- 0 5.0 0.0 30 85
- 1.27704 5 3 ack 40 ------- 0 5.0 0.0 30 85
r 1.2772 0 2 tcp 1040 ------- 0 0.0 5.0 33 57
+ 1.2772 2 3 tcp 1040 ------- 0 0.0 5.0 33 57
- 1.2772 2 3 tcp 1040 ------- 0 0.0 5.0 33 57
r 1.2772 3 2 ack 40 ------- 0 5.0 0.0 29 83
+ 1.2772 2 0 ack 40 ------- 0 5.0 0.0 29 83
- 1.2772 2 0 ack 40 ------- 0 5.0 0.0 29 83
r 1.2792 2 3 tcp 1040 ------- 0 0.0 5.0 32 55
+ 1.2792 3 5 tcp 1040 ------- 0 0.0 5.0 32 55
- 1.2792 3 5 tcp 1040 ------- 0 0.0 5.0 32 55
r 1.2792 5 3 ack 40 ------- 0 5.0 0.0 30 85
+ 1.2792 3 2 ack 40 ------- 0 5.0 0.0 30 85
- 1.2792 3 2 ack 40 ------- 0 5.0 0.0 30 85
- 1.27936 0 2 tcp 1040 ------- 0 0.0 5.0 35 60
r 1.27936 2 0 ack 40 ------- 0 5.0 0.0 29 83
+ 1.27936 0 2 tcp 1040 ------- 0 0.0 5.0 49 86
r 1.2812 3 5 tcp 1040 ------- 0 0.0 5.0 31 54
+ 1.2812 5 3 ack 40 ------- 0 5.0 0.0 31 87
- 1.2812 5 3 ack 40 ------- 0 5.0 0.0 31 87
r 1.28136 0 2 tcp 1040 ------- 0 0.0 5.0 34 58
+ 1.28136 2 3 tcp 1040 ------- 0 0.0 5.0 34 58
- 1.28136 2 3 tcp 1040 ------- 0 0.0 5.0 34 58
r 1.28136 3 2 ack 40 ------- 0 5.0 0.0 30 85
+ 1.28136 2 0 ack 40 ------- 0 5.0 0.0 30 85
- 1.28136 2 0 ack 40 ------- 0 5.0 0.0 30 85
r 1.28336 2 3 tcp 1040 ------- 0 0.0 5.0 33 57
+ 1.28336 3 5 tcp 1040 ------- 0 0.0 5.0 33 57
- 1.28336 3 5 tcp 1040 ------- 0 0.0 5.0 33 57
r 1.28336 5 3 ack 40 ------- 0 5.0 0.0 31 87
+ 1.28336 3 2 ack 40 ------- 0 5.0 0.0 31 87